Program Version,EnergyPlus, Version 9.5.0-de239b2e5f, YMD=2023.02.16 18:16
1,5,Environment Title[],Latitude[deg],Longitude[deg],Time Zone[],Elevation[m]
2,8,Day of Simulation[],Month[],Day of Month[],DST Indicator[1=yes 0=no],Hour[],StartMinute[],EndMinute[],DayType
3,5,Cumulative Day of Simulation[],Month[],Day of Month[],DST Indicator[1=yes 0=no],DayType  ! When Daily Report Variables Requested
4,2,Cumulative Days of Simulation[],Month[]  ! When Monthly Report Variables Requested
5,1,Cumulative Days of Simulation[] ! When Run Period Report Variables Requested
6,1,Calendar Year of Simulation[] ! When Annual Report Variables Requested
7,1,Environment,Site Outdoor Air Drybulb Temperature [C] !TimeStep
8,1,ZONE ONE,Zone Windows Total Transmitted Solar Radiation Rate [W] !TimeStep
9,1,ZN001:WALL001,Surface Outside Face Sunlit Fraction [] !TimeStep
10,1,ZN001:WALL001,Surface Outside Face Incident Solar Radiation Rate per Area [W/m2] !TimeStep
11,1,ZN001:WALL001:WIN001,Surface Outside Face Sunlit Fraction [] !TimeStep
12,1,ZN001:WALL001:WIN001,Surface Outside Face Incident Solar Radiation Rate per Area [W/m2] !TimeStep
13,1,ZN001:WALL001:WIN001,Surface Window Transmitted Solar Radiation Rate [W] !TimeStep
14,1,ZN001:WALL001,Surface Inside Face Temperature [C] !TimeStep
15,1,ZN001:WALL001,Surface Outside Face Temperature [C] !TimeStep
16,1,ZN001:WALL001:WIN001,Surface Inside Face Temperature [C] !TimeStep
17,1,ZN001:WALL001:WIN001,Surface Outside Face Temperature [C] !TimeStep
18,1,ZONE ONE,Zone Mean Air Temperature [C] !TimeStep
End of Data Dictionary
1,RUN PERIOD 1,  41.98, -87.92,  -6.00, 201.00
2,1, 1, 1, 0, 1, 0.00,15.00,Tuesday
7,-4.324999999999999
8,0.0
9,0.0
10,0.0
11,0.0
12,0.0
13,0.0
14,5.00980523251929
15,-5.9126518250894419
16,4.452646632053813
17,-5.742452650544124
18,5.468550203148247
2,1, 1, 1, 0, 1,15.00,30.00,Tuesday
7,-6.949999999999999
8,0.0
9,0.0
10,0.0
11,0.0
12,0.0
13,0.0
14,4.839373572275644
15,-8.380047056822728
16,4.1571733004651609
17,-8.073404535788996
18,5.386990876989924
2,1, 1, 1, 0, 1,30.00,45.00,Tuesday
7,-9.575
8,0.0
9,0.0
10,0.0
11,0.0
12,0.0
13,0.0
14,4.651951305602968
15,-10.855331494314287
16,3.857643824521574
17,-10.412038503241775
18,5.277856986237716
2,1, 1, 1, 0, 1,45.00,60.00,Tuesday
7,-12.2
8,0.0
9,0.0
10,0.0
11,0.0
12,0.0
13,0.0
14,4.450975094074903
15,-13.337194885928462
16,3.5436737133303497
17,-12.759201509883383
18,5.149092476782071
2,1, 1, 1, 0, 2, 0.00,15.00,Tuesday
7,-12.075
8,0.0
9,0.0
10,0.0
11,0.0
12,0.0
13,0.0
14,4.396350736713952
15,-13.138069582983736
16,3.4397524625430835
17,-12.62090245984183
18,5.0314006673027189
2,1, 1, 1, 0, 2,15.00,30.00,Tuesday
7,-11.95
8,0.0
9,0.0
10,0.0
11,0.0
12,0.0
13,0.0
14,4.327396315376651
15,-12.960777251982096
16,3.386597906991028
17,-12.43494664799914
18,4.940244397799652
2,1, 1, 1, 0, 2,30.00,45.00,Tuesday
7,-11.825
8,0.0
9,0.0
10,0.0
11,0.0
12,0.0
13,0.0
14,4.27303682868251
15,-12.78241345356802
16,3.339267585996936
17,-12.267125986704003
18,4.871961155781358
2,1, 1, 1, 0, 2,45.00,60.00,Tuesday
7,-11.7
8,0.0
9,0.0
10,0.0
11,0.0
12,0.0
13,0.0
14,4.228357085982118
15,-12.604121931458467
16,3.3006949901787268
17,-12.078928685780966
18,4.817512157547601
2,1, 1, 1, 0, 3, 0.00,15.00,Tuesday
7,-11.549999999999999
8,0.0
9,0.0
10,0.0
11,0.0
12,0.0
13,0.0
14,4.184640663125963
15,-12.478102644182071
16,3.268195596346345
17,-11.950116570148055
18,4.769086346872705
2,1, 1, 1, 0, 3,15.00,30.00,Tuesday
7,-11.399999999999999
8,0.0
9,0.0
10,0.0
11,0.0
12,0.0
13,0.0
14,4.143837498854133
15,-12.353448900906813
16,3.2360903160114846
17,-11.815300800435466
18,4.722672008048794
2,1, 1, 1, 0, 3,30.00,45.00,Tuesday
7,-11.25
8,0.0
9,0.0
10,0.0
11,0.0
12,0.0
13,0.0
14,4.103761158187806
15,-12.230319637537259
16,3.2056411504776749
17,-11.680614558167577
18,4.677057364405697
2,1, 1, 1, 0, 3,45.00,60.00,Tuesday
7,-11.1
8,0.0
9,0.0
10,0.0
11,0.0
12,0.0
13,0.0
14,4.0640517526684729
15,-12.108775479133389
16,3.1757273485256976
17,-11.546567913620834
18,4.632080111151543
2,1, 1, 1, 0, 4, 0.00,15.00,Tuesday
7,-11.1
8,0.0
9,0.0
10,0.0
11,0.0
12,0.0
13,0.0
14,4.021073042590013
15,-12.080026406648067
16,3.1341949345889477
17,-11.534603834592418
18,4.587404585825545
2,1, 1, 1, 0, 4,15.00,30.00,Tuesday
7,-11.1
8,0.0
9,0.0
10,0.0
11,0.0
12,0.0
13,0.0
14,3.978534382930158
15,-12.052375072660646
16,3.093338850033092
17,-11.52813591964582
18,4.542820223345868
2,1, 1, 1, 0, 4,30.00,45.00,Tuesday
7,-11.1
8,0.0
9,0.0
10,0.0
11,0.0
12,0.0
13,0.0
14,3.9360227773688
15,-12.026269183263353
16,3.0526967024628108
17,-11.522173897824473
18,4.498288303549118
2,1, 1, 1, 0, 4,45.00,60.00,Tuesday
7,-11.1
8,0.0
9,0.0
10,0.0
11,0.0
12,0.0
13,0.0
14,3.893560215657698
15,-12.001582292169458
16,3.01212203534692
17,-11.516474107047316
18,4.453835740966856
2,1, 1, 1, 0, 5, 0.00,15.00,Tuesday
7,-10.975
8,0.0
9,0.0
10,0.0
11,0.0
12,0.0
13,0.0
14,3.856378714213896
15,-11.87946188046471
16,2.9820590903618724
17,-11.408839818661307
18,4.410180709922742
2,1, 1, 1, 0, 5,15.00,30.00,Tuesday
7,-10.85
8,0.0
9,0.0
10,0.0
11,0.0
12,0.0
13,0.0
14,3.8193074872885948
15,-11.757426169082035
16,2.9531256824291178
17,-11.294854332514945
18,4.367691975907286
2,1, 1, 1, 0, 5,30.00,45.00,Tuesday
7,-10.725
8,0.0
9,0.0
10,0.0
11,0.0
12,0.0
13,0.0
14,3.7830246376561824
15,-11.635373431182927
16,2.9246611562758746
17,-11.180453444456419
18,4.3262551763471
2,1, 1, 1, 0, 5,45.00,60.00,Tuesday
7,-10.6
8,0.0
9,0.0
10,0.0
11,0.0
12,0.0
13,0.0
14,3.747419799923878
15,-11.513331695473236
16,2.896901085819536
17,-11.0659885733632
18,4.285622224589995
2,1, 1, 1, 0, 6, 0.00,15.00,Tuesday
7,-10.6
8,0.0
9,0.0
10,0.0
11,0.0
12,0.0
13,0.0
14,3.7049684731725249
15,-11.514172565496061
16,2.8585004123302726
17,-11.06147529400016
18,4.244523928218211
2,1, 1, 1, 0, 6,15.00,30.00,Tuesday
7,-10.6
8,0.0
9,0.0
10,0.0
11,0.0
12,0.0
13,0.0
14,3.663119212456392
15,-11.514951806719998
16,2.8183906326395347
17,-11.063777493225303
18,4.202314865498263
2,1, 1, 1, 0, 6,30.00,45.00,Tuesday
7,-10.6
8,0.0
9,0.0
10,0.0
11,0.0
12,0.0
13,0.0
14,3.6207984789710268
15,-11.515771425085227
16,2.77828915423396
17,-11.066475013868058
18,4.159182497238721
2,1, 1, 1, 0, 6,45.00,60.00,Tuesday
7,-10.6
8,0.0
9,0.0
10,0.0
11,0.0
12,0.0
13,0.0
14,3.5781814678464696
15,-11.516590353601574
16,2.737821344272561
17,-11.069223719759976
18,4.115545879211611
2,1, 1, 1, 0, 7, 0.00,15.00,Tuesday
7,-10.6
8,0.0
9,0.0
10,0.0
11,0.0
12,0.0
13,0.0
14,3.537646259399442
15,-11.492868549761865
16,2.698029814179563
17,-11.06328236084903
18,4.072123008847338
2,1, 1, 1, 0, 7,15.00,30.00,Tuesday
7,-10.6
8,0.0
9,0.0
10,0.0
11,0.0
12,0.0
13,0.0
14,3.496984136416044
15,-11.470373033363059
16,2.65935757883085
17,-11.056991958167885
18,4.029271013190906
2,1, 1, 1, 0, 7,30.00,45.00,Tuesday
7,-10.6
8,0.0
9,0.0
10,0.0
11,0.0
12,0.0
13,0.0
14,3.4566273181427564
15,-11.449020966357317
16,2.620805625448895
17,-11.05091840588517
18,3.9869438779382087
2,1, 1, 1, 0, 7,45.00,60.00,Tuesday
7,-10.6
8,0.0
9,0.0
10,0.0
11,0.0
12,0.0
13,0.0
14,3.4165705054004715
15,-11.428745043374566
16,2.5825345747806525
17,-11.0450638360918
18,3.9449947266928948
2,1, 1, 1, 0, 8, 0.00,15.00,Tuesday
7,-10.45
8,0.0
9,0.0
10,0.0
11,0.0
12,0.0
13,0.0
14,3.375592802112913
15,-11.379673711033965
16,2.54784823395903
17,-11.007655223736777
18,3.902782585134182
2,1, 1, 1, 0, 8,15.00,30.00,Tuesday
7,-10.3
8,115.03919117926972
9,1.0
10,22.819555959623899
11,1.0
12,22.819555959623899
13,115.03919117926972
14,3.4446897699885175
15,-9.706414707483447
16,2.8596855884513276
17,-10.71183729747537
18,3.8759915897979315
2,1, 1, 1, 0, 8,30.00,45.00,Tuesday
7,-10.15
8,564.843581773016
9,1.0
10,109.75755355442667
11,1.0
12,109.75755355442667
13,564.843581773016
14,3.8127295027531407
15,-3.339109553560241
16,4.297349146931424
17,-9.647139784110323
18,3.907012535732169
2,1, 1, 1, 0, 8,45.00,60.00,Tuesday
7,-10.0
8,1027.107415698465
9,1.0
10,195.8764694434918
11,1.0
12,195.8764694434918
13,1027.107415698465
14,4.257239031730904
15,3.135820730955101
16,5.729932711212712
17,-8.54930781331393
18,4.005345103682495
2,1, 1, 1, 0, 9, 0.00,15.00,Tuesday
7,-9.725
8,1487.7790350735168
9,1.0
10,278.97248314719988
11,1.0
12,278.97248314719988
13,1487.7790350735168
14,4.658898684263654
15,8.326698569807208
16,7.075221830681585
17,-7.564967056049682
18,4.15847670213952
2,1, 1, 1, 0, 9,15.00,30.00,Tuesday
7,-9.45
8,1973.3797118442713
9,1.0
10,364.91995730569456
11,1.0
12,364.91995730569456
13,1973.3797118442713
14,5.069733782369573
15,13.400083844577085
16,8.444991050559168
17,-6.580590577126202
18,4.352714528423387
2,1, 1, 1, 0, 9,30.00,45.00,Tuesday
7,-9.175
8,2294.651274485231
9,1.0
10,420.35879993239237
11,1.0
12,420.35879993239237
13,2294.651274485231
14,5.344170123457472
15,16.158132954403269
16,9.40270025450684
17,-5.965381615395529
18,4.569305267948447
2,1, 1, 1, 0, 9,45.00,60.00,Tuesday
7,-8.9
8,2628.157408555287
9,1.0
10,478.00138373643099
11,1.0
12,478.00138373643099
13,2628.157408555287
14,5.673208205657712
15,19.15259823439377
16,10.344785126146235
17,-5.326672852406546
18,4.798466236596727
2,1, 1, 1, 0,10, 0.00,15.00,Tuesday
7,-8.350000000000002
8,2968.709586547734
9,1.0
10,536.9185644770597
11,1.0
12,536.9185644770597
13,2968.709586547734
14,5.944474127592914
15,20.269254566761857
16,11.323690923549009
17,-4.526413362506219
18,5.042226582359772
2,1, 1, 1, 0,10,15.00,30.00,Tuesday
7,-7.800000000000001
8,3321.0268194611828
9,1.0
10,598.0969199229219
11,1.0
12,598.0969199229219
13,3321.0268194611828
14,6.2418549605850999
15,21.521697128487696
16,12.322128765727598
17,-3.7556086705585018
18,5.306625808939999
2,1, 1, 1, 0,10,30.00,45.00,Tuesday
7,-7.25
8,3552.151013375401
9,1.0
10,637.6133352894237
11,1.0
12,637.6133352894237
13,3552.151013375401
14,6.468915204963059
15,21.58087331134026
16,13.049601589929012
17,-3.192543099584725
18,5.5775204082393119
2,1, 1, 1, 0,10,45.00,60.00,Tuesday
7,-6.7
8,3779.8708706745844
9,1.0
10,676.6412284283772
11,1.0
12,676.6412284283772
13,3779.8708706745844
14,6.716123741286316
15,21.74061359402556
16,13.746238802860603
17,-2.6351487600486509
18,5.843885842783559
2,1, 1, 1, 0,11, 0.00,15.00,Tuesday
7,-6.275
8,4003.447923168032
9,1.0
10,715.0112779846514
11,1.0
12,715.0112779846514
13,4003.447923168032
14,7.038998725720798
15,23.83832307251949
16,14.442549681667743
17,-1.9396703000364824
18,6.107497602160428
2,1, 1, 1, 0,11,15.00,30.00,Tuesday
7,-5.85
8,4221.762249309513
9,1.0
10,752.5077794605232
11,1.0
12,752.5077794605232
13,4221.762249309513
14,7.349434025171681
15,25.773211450560795
16,15.132167792903602
17,-1.2539991641282882
18,6.372636597434814
2,1, 1, 1, 0,11,30.00,45.00,Tuesday
7,-5.425
8,4156.879578089225
9,1.0
10,742.5988714321785
11,1.0
12,742.5988714321785
13,4156.879578089225
14,7.528916080635739
15,25.62489621484925
16,15.24060423495581
17,-0.9423616169648312
18,6.623399755900592
2,1, 1, 1, 0,11,45.00,60.00,Tuesday
7,-5.0
8,4064.169807818047
9,1.0
10,727.8169025450712
11,1.0
12,727.8169025450712
13,4064.169807818047
14,7.703610759338048
15,25.395705909014759
16,15.258751840805076
17,-0.6570343872921285
18,6.848200651722469
2,1, 1, 1, 0,12, 0.00,15.00,Tuesday
7,-4.575
8,3904.7370931113848
9,1.0
10,700.3759009170325
11,1.0
12,700.3759009170325
13,3904.7370931113848
14,7.823404863834599
15,24.65308633758057
16,15.119402558260163
17,-0.4164113859764029
18,7.040839801444954
2,1, 1, 1, 0,12,15.00,30.00,Tuesday
7,-4.15
8,3786.4971101905705
9,1.0
10,681.6705029034473
11,1.0
12,681.6705029034473
13,3786.4971101905705
14,7.96476118577578
15,24.322689989588925
16,15.055157398555139
17,-0.1142704531906702
18,7.208497267256314
2,1, 1, 1, 0,12,30.00,45.00,Tuesday
7,-3.7249999999999998
8,3324.2291040318089
9,1.0
10,602.01865277251
11,1.0
12,602.01865277251
13,3324.2291040318089
14,7.879695749336136
15,21.29425287123745
16,14.248035031355926
17,-0.24806342678459715
18,7.3317133535793739
2,1, 1, 1, 0,12,45.00,60.00,Tuesday
7,-3.3
8,2714.939666512416
9,1.0
10,493.55004396206007
11,1.0
12,493.55004396206007
13,2714.939666512416
14,7.6884868986079779
15,17.115786270219006
16,12.986212174571847
17,-0.6159698583260251
18,7.389848449894302
2,1, 1, 1, 0,13, 0.00,15.00,Tuesday
7,-3.0249999999999996
8,2241.7153986594264
9,1.0
10,412.335026418112
11,1.0
12,412.335026418112
13,2241.7153986594264
14,7.551533352818997
15,14.271565665536278
16,11.9636971647559
17,-0.8637521416892469
18,7.396900304443842
2,1, 1, 1, 0,13,15.00,30.00,Tuesday
7,-2.75
8,1641.850123185226
9,1.0
10,305.94037763660148
11,1.0
12,305.94037763660148
13,1641.850123185226
14,7.262745138195651
15,10.097358605675428
16,10.586205990931603
17,-1.3114240831783946
18,7.3597936458267398
2,1, 1, 1, 0,13,30.00,45.00,Tuesday
7,-2.475
8,1498.9510431694724
9,1.0
10,281.0763483922329
11,1.0
12,281.0763483922329
13,1498.9510431694724
14,7.248467546503737
15,9.58727989275354
16,10.20637286561157
17,-1.1571204956831026
18,7.306037602773925
2,1, 1, 1, 0,13,45.00,60.00,Tuesday
7,-2.2
8,1359.0287484929959
9,1.0
10,256.7721209415886
11,1.0
12,256.7721209415886
13,1359.0287484929959
14,7.2116420393381459
15,8.979980033003802
16,9.909362655841506
17,-0.9807077203855101
18,7.259392976342388
2,1, 1, 1, 0,14, 0.00,15.00,Tuesday
7,-1.9250000000000003
8,1110.188267973163
9,1.0
10,210.73276284570657
11,1.0
12,210.73276284570657
13,1110.188267973163
14,7.090096663023255
15,7.431963735924345
16,9.297607647941959
17,-1.019416418124706
18,7.2159885575193389
2,1, 1, 1, 0,14,15.00,30.00,Tuesday
7,-1.6500000000000002
8,986.2055451828589
9,1.0
10,189.38488290342594
11,1.0
12,189.38488290342594
13,986.2055451828589
14,7.067235038312274
15,7.029410616238425
16,8.982868773691166
17,-0.8821976242070377
18,7.176564866972416
2,1, 1, 1, 0,14,30.00,45.00,Tuesday
7,-1.375
8,940.5609907953474
9,1.0
10,179.3940297802914
11,1.0
12,179.3940297802914
13,940.5609907953474
14,7.059899571169135
15,7.150315003157747
16,8.87048576032646
17,-0.6404595455663866
18,7.144219396972162
2,1, 1, 1, 0,14,45.00,60.00,Tuesday
7,-1.1
8,894.3949724036753
9,1.0
10,169.43349014176136
11,1.0
12,169.43349014176136
13,894.3949724036753
14,7.05099448809452
15,7.249299766631406
16,8.752704688048653
17,-0.3987479012254198
18,7.118524555368212
2,1, 1, 1, 0,15, 0.00,15.00,Tuesday
7,-1.1
8,941.4068197394458
9,1.0
10,178.15692317953907
11,1.0
12,178.15692317953907
13,941.4068197394458
14,7.0984849799319289
15,8.065772215330146
16,8.868836145987416
17,-0.2963740578717875
18,7.103242307511943
2,1, 1, 1, 0,15,15.00,30.00,Tuesday
7,-1.1
8,884.4258525960432
9,1.0
10,166.40516310952945
11,1.0
12,166.40516310952945
13,884.4258525960432
14,7.05692164079755
15,7.702291105616955
16,8.72117059903951
17,-0.3674527348337051
18,7.091029547510755
2,1, 1, 1, 0,15,30.00,45.00,Tuesday
7,-1.1
8,745.7319878230006
9,1.0
10,140.8967369711617
11,1.0
12,140.8967369711617
13,745.7319878230006
14,6.957343623955087
15,6.496312987854166
16,8.331249592310371
17,-0.6046283254719924
18,7.069099197240702
2,1, 1, 1, 0,15,45.00,60.00,Tuesday
7,-1.1
8,613.6766501346383
9,1.0
10,116.57355796743004
11,1.0
12,116.57355796743004
13,613.6766501346383
14,6.861563530983959
15,5.290582945003924
16,7.933261765827183
17,-0.8469197882216122
18,7.030161211943972
2,1, 1, 1, 0,16, 0.00,15.00,Tuesday
7,-1.1
8,487.0488027440361
9,1.0
10,93.14939272689483
11,1.0
12,93.14939272689483
13,487.0488027440361
14,6.766917392705356
15,4.237949161338844
16,7.538109886368886
17,-1.022535990573715
18,6.9751032410033899
2,1, 1, 1, 0,16,15.00,30.00,Tuesday
7,-1.1
8,302.3607792671943
9,1.0
10,57.94047897402063
11,1.0
12,57.94047897402063
13,302.3607792671943
14,6.592058402978989
15,2.11349316328165
16,6.9165124845142149
17,-1.3640431366309259
18,6.899654901778276
2,1, 1, 1, 0,16,30.00,45.00,Tuesday
7,-1.1
8,234.42837183280779
9,1.0
10,45.38251793443488
11,1.0
12,45.38251793443488
13,234.42837183280779
14,6.521721328499802
15,1.5014251279614899
16,6.6289259561018529
17,-1.4633601574547584
18,6.813513764220321
2,1, 1, 1, 0,16,45.00,60.00,Tuesday
7,-1.1
8,163.64653449269407
9,1.0
10,32.02625108222755
11,1.0
12,32.02625108222755
13,163.64653449269407
14,6.418562800379354
15,0.6373668109516099
16,6.369708574170772
17,-1.5831918505105023
18,6.723247963773088
2,1, 1, 1, 0,17, 0.00,15.00,Tuesday
7,-1.1
8,89.75989496584296
9,1.0
10,17.762198626050539
11,1.0
12,17.762198626050539
13,89.75989496584296
14,6.287268372513789
15,-0.6153442166839587
16,6.074190570309497
17,-1.8347575164267483
18,6.632269293646731
2,1, 1, 1, 0,17,15.00,30.00,Tuesday
7,-1.1
8,0.0
9,0.0
10,0.0
11,0.0
12,0.0
13,0.0
14,6.109477864713397
15,-2.4530000994023299
16,5.720429454823261
17,-2.089915201900453
18,6.531847115312038
2,1, 1, 1, 0,17,30.00,45.00,Tuesday
7,-1.1
8,0.0
9,0.0
10,0.0
11,0.0
12,0.0
13,0.0
14,6.056298180670463
15,-2.5897031007349606
16,5.614290562057192
17,-2.166491084950394
18,6.434841712673621
2,1, 1, 1, 0,17,45.00,60.00,Tuesday
7,-1.1
8,0.0
9,0.0
10,0.0
11,0.0
12,0.0
13,0.0
14,5.989437921334822
15,-2.7816037166052425
16,5.551552110990258
17,-2.256400053711104
18,6.353268420987405
2,1, 1, 1, 0,18, 0.00,15.00,Tuesday
7,-1.25
8,0.0
9,0.0
10,0.0
11,0.0
12,0.0
13,0.0
14,5.9341485116839058
15,-2.9292563704251606
16,5.478960495856654
17,-2.411697494880684
18,6.288351762716353
2,1, 1, 1, 0,18,15.00,30.00,Tuesday
7,-1.4
8,0.0
9,0.0
10,0.0
11,0.0
12,0.0
13,0.0
14,5.884032827805914
15,-3.0815711757312607
16,5.420514542949093
17,-2.5570180265693809
18,6.235558807523923
2,1, 1, 1, 0,18,30.00,45.00,Tuesday
7,-1.5499999999999999
8,0.0
9,0.0
10,0.0
11,0.0
12,0.0
13,0.0
14,5.838298393270822
15,-3.2333930755108954
16,5.366599569586242
17,-2.7028974665449825
18,6.189822751272286
2,1, 1, 1, 0,18,45.00,60.00,Tuesday
7,-1.7
8,0.0
9,0.0
10,0.0
11,0.0
12,0.0
13,0.0
14,5.794912314184748
15,-3.385375010612681
16,5.32088551002613
17,-2.8448560363785875
18,6.147743263343299
2,1, 1, 1, 0,19, 0.00,15.00,Tuesday
7,-1.825
8,0.0
9,0.0
10,0.0
11,0.0
12,0.0
13,0.0
14,5.776921931489796
15,-3.236369072010418
16,5.282879848457469
17,-2.83771240888575
18,6.111252408683488
2,1, 1, 1, 0,19,15.00,30.00,Tuesday
7,-1.9500000000000002
8,0.0
9,0.0
10,0.0
11,0.0
12,0.0
13,0.0
14,5.758318994285719
15,-3.1688615869634315
16,5.257888296432839
17,-2.860697712091792
18,6.082049023015758
2,1, 1, 1, 0,19,30.00,45.00,Tuesday
7,-2.075
8,0.0
9,0.0
10,0.0
11,0.0
12,0.0
13,0.0
14,5.735162307964349
15,-3.2423837260162009
16,5.230644393613261
17,-2.9535499155764457
18,6.058432967268332
2,1, 1, 1, 0,19,45.00,60.00,Tuesday
7,-2.2
8,0.0
9,0.0
10,0.0
11,0.0
12,0.0
13,0.0
14,5.7152522305512349
15,-3.2195782044347496
16,5.208379579765619
17,-2.994569235118263
18,6.037352943167363
2,1, 1, 1, 0,20, 0.00,15.00,Tuesday
7,-1.9250000000000003
8,0.0
9,0.0
10,0.0
11,0.0
12,0.0
13,0.0
14,5.711014915792224
15,-2.9182127051890727
16,5.214646875190908
17,-2.7206897261951328
18,6.018414919641867
2,1, 1, 1, 0,20,15.00,30.00,Tuesday
7,-1.6500000000000002
8,0.0
9,0.0
10,0.0
11,0.0
12,0.0
13,0.0
14,5.706264684505642
15,-2.6199052566108098
16,5.225343541696702
17,-2.447165830211361
18,6.001806755343669
2,1, 1, 1, 0,20,30.00,45.00,Tuesday
7,-1.375
8,0.0
9,0.0
10,0.0
11,0.0
12,0.0
13,0.0
14,5.702871548330205
15,-2.322863253664173
16,5.236811546453964
17,-2.17368773889109
18,5.987276818460806
2,1, 1, 1, 0,20,45.00,60.00,Tuesday
7,-1.1
8,0.0
9,0.0
10,0.0
11,0.0
12,0.0
13,0.0
14,5.700685635690654
15,-2.02709906088236
16,5.249569367829508
17,-1.9002154364300168
18,5.9743902529739689
2,1, 1, 1, 0,21, 0.00,15.00,Tuesday
7,-1.25
8,0.0
9,0.0
10,0.0
11,0.0
12,0.0
13,0.0
14,5.657148546170652
15,-2.3085815157487117
16,5.217467597159384
17,-2.1139951679198818
18,5.95717199173493
2,1, 1, 1, 0,21,15.00,30.00,Tuesday
7,-1.4
8,0.0
9,0.0
10,0.0
11,0.0
12,0.0
13,0.0
14,5.614918021412385
15,-2.5252972140301854
16,5.173433283447935
17,-2.278136635574242
18,5.931203792490516
2,1, 1, 1, 0,21,30.00,45.00,Tuesday
7,-1.5499999999999999
8,0.0
9,0.0
10,0.0
11,0.0
12,0.0
13,0.0
14,5.559154440594608
15,-2.8700817129169855
16,5.116764451289669
17,-2.516141382096748
18,5.895320347900336
2,1, 1, 1, 0,21,45.00,60.00,Tuesday
7,-1.7
8,0.0
9,0.0
10,0.0
11,0.0
12,0.0
13,0.0
14,5.497998368759239
15,-3.3225089385985187
16,5.0486733959241409
17,-2.7863634639463727
18,5.851296683761631
2,1, 1, 1, 0,22, 0.00,15.00,Tuesday
7,-1.5499999999999999
8,0.0
9,0.0
10,0.0
11,0.0
12,0.0
13,0.0
14,5.5059897579034919
15,-2.834253711257399
16,5.032185578984752
17,-2.49251304383813
18,5.812748248728149
2,1, 1, 1, 0,22,15.00,30.00,Tuesday
7,-1.4
8,0.0
9,0.0
10,0.0
11,0.0
12,0.0
13,0.0
14,5.503161472600158
15,-2.503576741766458
16,5.04170960205937
17,-2.265293247438649
18,5.787068382280195
2,1, 1, 1, 0,22,30.00,45.00,Tuesday
7,-1.25
8,0.0
9,0.0
10,0.0
11,0.0
12,0.0
13,0.0
14,5.49952701659937
15,-2.2831859647749597
16,5.046997567829521
17,-2.0987013127846128
18,5.772047648210524
2,1, 1, 1, 0,22,45.00,60.00,Tuesday
7,-1.1
8,0.0
9,0.0
10,0.0
11,0.0
12,0.0
13,0.0
14,5.499870056051763
15,-2.0002579304153498
16,5.058201855666596
17,-1.8777356509402808
18,5.762523574193823
2,1, 1, 1, 0,23, 0.00,15.00,Tuesday
7,-1.25
8,0.0
9,0.0
10,0.0
11,0.0
12,0.0
13,0.0
14,5.456733050626444
15,-2.303563528536803
16,5.01932962848889
17,-2.1967754541839215
18,5.748813267094277
2,1, 1, 1, 0,23,15.00,30.00,Tuesday
7,-1.4
8,0.0
9,0.0
10,0.0
11,0.0
12,0.0
13,0.0
14,5.416293910777968
15,-2.6080844290856119
16,4.961449260519657
17,-2.516955627838911
18,5.725890109224902
2,1, 1, 1, 0,23,30.00,45.00,Tuesday
7,-1.5499999999999999
8,0.0
9,0.0
10,0.0
11,0.0
12,0.0
13,0.0
14,5.371668638741574
15,-2.913245624643136
16,4.902452121527517
17,-2.8368305865343474
18,5.694550777996542
2,1, 1, 1, 0,23,45.00,60.00,Tuesday
7,-1.7
8,0.0
9,0.0
10,0.0
11,0.0
12,0.0
13,0.0
14,5.323441704264057
15,-3.2187487440734658
16,4.839691452189868
17,-3.1566722692825808
18,5.657435751731065
2,1, 1, 1, 0,24, 0.00,15.00,Tuesday
7,-1.7
8,0.0
9,0.0
10,0.0
11,0.0
12,0.0
13,0.0
14,5.291815139473995
15,-3.27268568798434
16,4.798865465975098
17,-3.215027271059114
18,5.619526676396623
2,1, 1, 1, 0,24,15.00,30.00,Tuesday
7,-1.7
8,0.0
9,0.0
10,0.0
11,0.0
12,0.0
13,0.0
14,5.257166248415784
15,-3.3272937658885555
16,4.763274573044782
17,-3.2770023416272808
18,5.58358412112152
2,1, 1, 1, 0,24,30.00,45.00,Tuesday
7,-1.7
8,0.0
9,0.0
10,0.0
11,0.0
12,0.0
13,0.0
14,5.223367525762849
15,-3.3817663581341828
16,4.727006788140329
17,-3.3391663493702028
18,5.549692364910586
2,1, 1, 1, 0,24,45.00,60.00,Tuesday
7,-1.7
8,0.0
9,0.0
10,0.0
11,0.0
12,0.0
13,0.0
14,5.190207502825564
15,-3.4362430746948426
16,4.6914579520050669
17,-3.4012211724260625
18,5.517028838977005
End of Data
 Number of Records Written=        1152
