Program Version,EnergyPlus, Version 9.5.0-de239b2e5f, YMD=2023.02.16 18:15
1,5,Environment Title[],Latitude[deg],Longitude[deg],Time Zone[],Elevation[m]
2,8,Day of Simulation[],Month[],Day of Month[],DST Indicator[1=yes 0=no],Hour[],StartMinute[],EndMinute[],DayType
3,5,Cumulative Day of Simulation[],Month[],Day of Month[],DST Indicator[1=yes 0=no],DayType  ! When Daily Report Variables Requested
4,2,Cumulative Days of Simulation[],Month[]  ! When Monthly Report Variables Requested
5,1,Cumulative Days of Simulation[] ! When Run Period Report Variables Requested
6,1,Calendar Year of Simulation[] ! When Annual Report Variables Requested
7,1,Environment,Site Outdoor Air Drybulb Temperature [C] !TimeStep
8,1,ZONE ONE,Zone Windows Total Transmitted Solar Radiation Rate [W] !TimeStep
9,1,ZN001:WALL001,Surface Outside Face Sunlit Fraction [] !TimeStep
10,1,ZN001:WALL001,Surface Outside Face Incident Solar Radiation Rate per Area [W/m2] !TimeStep
11,1,ZN001:WALL001:WIN001,Surface Outside Face Sunlit Fraction [] !TimeStep
12,1,ZN001:WALL001:WIN001,Surface Outside Face Incident Solar Radiation Rate per Area [W/m2] !TimeStep
13,1,ZN001:WALL001:WIN001,Surface Window Transmitted Solar Radiation Rate [W] !TimeStep
14,1,ZN001:WALL001,Surface Inside Face Temperature [C] !TimeStep
15,1,ZN001:WALL001,Surface Outside Face Temperature [C] !TimeStep
16,1,ZN001:WALL001:WIN001,Surface Inside Face Temperature [C] !TimeStep
17,1,ZN001:WALL001:WIN001,Surface Outside Face Temperature [C] !TimeStep
18,1,ZONE ONE,Zone Mean Air Temperature [C] !TimeStep
End of Data Dictionary
1,RUN PERIOD 1,  41.98, -87.92,  -6.00, 201.00
2,1, 1, 1, 0, 1, 0.00,15.00,Tuesday
7,-4.324999999999999
8,0.0
9,0.0
10,0.0
11,0.0
12,0.0
13,0.0
14,0.3807002442816719
15,-5.997155582062295
16,-0.11428227079841236
17,-5.919297636656381
18,0.7046858740615076
2,1, 1, 1, 0, 1,15.00,30.00,Tuesday
7,-6.949999999999999
8,0.0
9,0.0
10,0.0
11,0.0
12,0.0
13,0.0
14,0.21500926455200138
15,-8.465068929073919
16,-0.4689542810860985
17,-8.20942166743697
18,0.63460872113435
2,1, 1, 1, 0, 1,30.00,45.00,Tuesday
7,-9.575
8,0.0
9,0.0
10,0.0
11,0.0
12,0.0
13,0.0
14,0.031268029530216599
15,-10.941443161841076
16,-0.8218907756705676
17,-10.516271378596003
18,0.5350002963670145
2,1, 1, 1, 0, 1,45.00,60.00,Tuesday
7,-12.2
8,0.0
9,0.0
10,0.0
11,0.0
12,0.0
13,0.0
14,-0.1659740504452877
15,-13.424285861542649
16,-1.1901946193927984
17,-12.823179827071386
18,0.41351209497823296
2,1, 1, 1, 0, 2, 0.00,15.00,Tuesday
7,-12.075
8,0.0
9,0.0
10,0.0
11,0.0
12,0.0
13,0.0
14,-0.20922793927567327
15,-13.22590967990836
16,-1.279919099316885
17,-12.681093239079587
18,0.3019104332125951
2,1, 1, 1, 0, 2,15.00,30.00,Tuesday
7,-11.95
8,0.0
9,0.0
10,0.0
11,0.0
12,0.0
13,0.0
14,-0.2680525166891935
15,-13.048398099922605
16,-1.3177195205873887
17,-12.497959655299951
18,0.21701878507215975
2,1, 1, 1, 0, 2,30.00,45.00,Tuesday
7,-11.825
8,0.0
9,0.0
10,0.0
11,0.0
12,0.0
13,0.0
14,-0.3122589568829948
15,-12.869759095280154
16,-1.3513237562478367
17,-12.32402626303849
18,0.1561329218131836
2,1, 1, 1, 0, 2,45.00,60.00,Tuesday
7,-11.7
8,0.0
9,0.0
10,0.0
11,0.0
12,0.0
13,0.0
14,-0.34634773323110987
15,-12.691172577691069
16,-1.3730764716026443
17,-12.14913843594411
18,0.11049781406746379
2,1, 1, 1, 0, 3, 0.00,15.00,Tuesday
7,-11.549999999999999
8,0.0
9,0.0
10,0.0
11,0.0
12,0.0
13,0.0
14,-0.37941097932663755
15,-12.567282189201946
16,-1.3909767303925947
17,-12.024386368594719
18,0.07206683555607847
2,1, 1, 1, 0, 3,15.00,30.00,Tuesday
7,-11.399999999999999
8,0.0
9,0.0
10,0.0
11,0.0
12,0.0
13,0.0
14,-0.4081719932266206
15,-12.444845210824529
16,-1.4083366498711599
17,-11.893564222194812
18,0.036531190033808298
2,1, 1, 1, 0, 3,30.00,45.00,Tuesday
7,-11.25
8,0.0
9,0.0
10,0.0
11,0.0
12,0.0
13,0.0
14,-0.43692209737123097
15,-12.324078236450138
16,-1.423440371630079
17,-11.762858347914858
18,0.002287314382254682
2,1, 1, 1, 0, 3,45.00,60.00,Tuesday
7,-11.1
8,0.0
9,0.0
10,0.0
11,0.0
12,0.0
13,0.0
14,-0.4650650697285795
15,-12.204970760944196
16,-1.4381570845357033
17,-11.632931158376323
18,-0.031118088904440474
2,1, 1, 1, 0, 4, 0.00,15.00,Tuesday
7,-11.1
8,0.0
9,0.0
10,0.0
11,0.0
12,0.0
13,0.0
14,-0.49631855342468769
15,-12.173255565351605
16,-1.4681615574417606
17,-11.619111879344473
18,-0.06413932334080674
2,1, 1, 1, 0, 4,15.00,30.00,Tuesday
7,-11.1
8,0.0
9,0.0
10,0.0
11,0.0
12,0.0
13,0.0
14,-0.5272117383182103
15,-12.14276187720615
16,-1.4978800040580609
17,-11.614352545169368
18,-0.09698630085791915
2,1, 1, 1, 0, 4,30.00,45.00,Tuesday
7,-11.1
8,0.0
9,0.0
10,0.0
11,0.0
12,0.0
13,0.0
14,-0.558042015882444
15,-12.113950651011484
16,-1.526046615771179
17,-11.607367720181287
18,-0.1297456480538776
2,1, 1, 1, 0, 4,45.00,60.00,Tuesday
7,-11.1
8,0.0
9,0.0
10,0.0
11,0.0
12,0.0
13,0.0
14,-0.5888422999698663
15,-12.086692030824438
16,-1.5543752311380104
17,-11.600191016426493
18,-0.16242832392723303
2,1, 1, 1, 0, 5, 0.00,15.00,Tuesday
7,-10.975
8,0.0
9,0.0
10,0.0
11,0.0
12,0.0
13,0.0
14,-0.6142668451535859
15,-11.964274636110956
16,-1.5679380333435802
17,-11.49053947740083
18,-0.19437607843902234
2,1, 1, 1, 0, 5,15.00,30.00,Tuesday
7,-10.85
8,0.0
9,0.0
10,0.0
11,0.0
12,0.0
13,0.0
14,-0.6395396284065775
15,-11.841968944520979
16,-1.581843088384744
17,-11.37815135635492
18,-0.22518796132996728
2,1, 1, 1, 0, 5,30.00,45.00,Tuesday
7,-10.725
8,0.0
9,0.0
10,0.0
11,0.0
12,0.0
13,0.0
14,-0.6640819314974079
15,-11.719650699597013
16,-1.5952904645349123
17,-11.265534092595374
18,-0.25493907659383638
2,1, 1, 1, 0, 5,45.00,60.00,Tuesday
7,-10.6
8,0.0
9,0.0
10,0.0
11,0.0
12,0.0
13,0.0
14,-0.6879603490747823
15,-11.59734265459273
16,-1.608068039905902
17,-11.152849066959562
18,-0.2838649380366089
2,1, 1, 1, 0, 6, 0.00,15.00,Tuesday
7,-10.6
8,0.0
9,0.0
10,0.0
11,0.0
12,0.0
13,0.0
14,-0.7190333674705789
15,-11.59800889000385
16,-1.6366474147173449
17,-11.150564635063802
18,-0.31320543423447008
2,1, 1, 1, 0, 6,15.00,30.00,Tuesday
7,-10.6
8,0.0
9,0.0
10,0.0
11,0.0
12,0.0
13,0.0
14,-0.7496302206345663
15,-11.598579056465674
16,-1.6653806862866532
17,-11.151844292587726
18,-0.34367617125266206
2,1, 1, 1, 0, 6,30.00,45.00,Tuesday
7,-10.6
8,0.0
9,0.0
10,0.0
11,0.0
12,0.0
13,0.0
14,-0.780667868363314
15,-11.599184640160136
16,-1.6939850544411002
17,-11.154038987137256
18,-0.37515312687664628
2,1, 1, 1, 0, 6,45.00,60.00,Tuesday
7,-10.6
8,0.0
9,0.0
10,0.0
11,0.0
12,0.0
13,0.0
14,-0.8120447635927334
15,-11.599792381137144
16,-1.722951331237823
17,-11.156530915607732
18,-0.4072346186924191
2,1, 1, 1, 0, 7, 0.00,15.00,Tuesday
7,-10.6
8,0.0
9,0.0
10,0.0
11,0.0
12,0.0
13,0.0
14,-0.8411812892548983
15,-11.573677592035424
16,-1.750184018045843
17,-11.151069044706788
18,-0.43918625298561739
2,1, 1, 1, 0, 7,15.00,30.00,Tuesday
7,-10.6
8,0.0
9,0.0
10,0.0
11,0.0
12,0.0
13,0.0
14,-0.8704611030985133
15,-11.548912914337258
16,-1.7767529621306722
17,-11.143804004381082
18,-0.47061440538497359
2,1, 1, 1, 0, 7,30.00,45.00,Tuesday
7,-10.6
8,0.0
9,0.0
10,0.0
11,0.0
12,0.0
13,0.0
14,-0.8995024378828779
15,-11.525402640185457
16,-1.8034030669567756
17,-11.136327968083379
18,-0.501537967699148
2,1, 1, 1, 0, 7,45.00,60.00,Tuesday
7,-10.6
8,0.0
9,0.0
10,0.0
11,0.0
12,0.0
13,0.0
14,-0.9282750696611842
15,-11.503070625127853
16,-1.8298401921823598
17,-11.128969866367698
18,-0.5320953234138454
2,1, 1, 1, 0, 8, 0.00,15.00,Tuesday
7,-10.45
8,0.0
9,0.0
10,0.0
11,0.0
12,0.0
13,0.0
14,-0.958187668367839
15,-11.455668863076177
16,-1.8511038229092379
17,-11.089256172577223
18,-0.5629543771084502
2,1, 1, 1, 0, 8,15.00,30.00,Tuesday
7,-10.3
8,43.92919895502562
9,1.0
10,22.819555959623899
11,1.0
12,22.819555959623899
13,43.92919895502562
14,-0.8911709201057612
15,-9.78319226624674
16,-1.4551555833310204
17,-10.74784911318443
18,-0.5815667043440569
2,1, 1, 1, 0, 8,30.00,45.00,Tuesday
7,-10.15
8,217.30754917639187
9,1.0
10,109.75755355442667
11,1.0
12,109.75755355442667
13,217.30754917639187
14,-0.5582331111662481
15,-3.4281936459379618
16,0.2505072577552028
17,-9.504880849591757
18,-0.5546255707657156
2,1, 1, 1, 0, 8,45.00,60.00,Tuesday
7,-10.0
8,399.4699535945363
9,1.0
10,195.8764694434918
11,1.0
12,195.8764694434918
13,399.4699535945363
14,-0.12763832603527038
15,3.090752288645313
16,1.8435896921838549
17,-8.25242058722904
18,-0.47319758461979147
2,1, 1, 1, 0, 9, 0.00,15.00,Tuesday
7,-9.725
8,585.1489314874541
9,1.0
10,278.97248314719988
11,1.0
12,278.97248314719988
13,585.1489314874541
14,0.15181102180861323
15,8.245618821211723
16,3.3095163784449825
17,-7.153683337331472
18,-0.34271483897700569
2,1, 1, 1, 0, 9,15.00,30.00,Tuesday
7,-9.45
8,784.787199245388
9,1.0
10,364.91995730569456
11,1.0
12,364.91995730569456
13,784.787199245388
14,0.5064586877023688
15,13.331050173581687
16,4.777212143723773
17,-6.066776808559325
18,-0.17546104427782664
2,1, 1, 1, 0, 9,30.00,45.00,Tuesday
7,-9.175
8,921.7412871041541
9,1.0
10,420.35879993239237
11,1.0
12,420.35879993239237
13,921.7412871041541
14,0.7324605646848796
15,16.090290478598324
16,5.76902886455764
17,-5.401484235022849
18,0.010309968879443297
2,1, 1, 1, 0, 9,45.00,60.00,Tuesday
7,-8.9
8,1065.0474005418728
9,1.0
10,478.00138373643099
11,1.0
12,478.00138373643099
13,1065.0474005418728
14,1.0012071093335285
15,19.086185460120637
16,6.759483743945395
17,-4.706765209530431
18,0.20988274247861844
2,1, 1, 1, 0,10, 0.00,15.00,Tuesday
7,-8.350000000000002
8,1212.3134782022194
9,1.0
10,536.9185644770597
11,1.0
12,536.9185644770597
13,1212.3134782022194
14,1.2084390130274255
15,20.207741710861165
16,7.783728966641149
17,-3.8886141312391375
18,0.42252836471305257
2,1, 1, 1, 0,10,15.00,30.00,Tuesday
7,-7.800000000000001
8,1365.083720287943
9,1.0
10,598.0969199229219
11,1.0
12,598.0969199229219
13,1365.083720287943
14,1.4376060100492699
15,21.46377656677955
16,8.832749736527149
17,-3.0954060376130316
18,0.6445470050627142
2,1, 1, 1, 0,10,30.00,45.00,Tuesday
7,-7.25
8,1468.1999493442264
9,1.0
10,637.6133352894237
11,1.0
12,637.6133352894237
13,1468.1999493442264
14,1.6004651991319579
15,21.526184818007903
16,9.571631476249081
17,-2.5334701944387918
18,0.8634503943936159
2,1, 1, 1, 0,10,45.00,60.00,Tuesday
7,-6.7
8,1569.705828175432
9,1.0
10,676.6412284283772
11,1.0
12,676.6412284283772
13,1569.705828175432
14,1.7766205804748648
15,21.688528306553775
16,10.281211406364435
17,-1.9756717315569859
18,1.072574788861256
2,1, 1, 1, 0,11, 0.00,15.00,Tuesday
7,-6.275
8,1669.2149873773784
9,1.0
10,715.0112779846514
11,1.0
12,715.0112779846514
13,1669.2149873773784
14,2.030943594226119
15,23.78562681909668
16,10.991750285832325
17,-1.244696805626063
18,1.2755803618333124
2,1, 1, 1, 0,11,15.00,30.00,Tuesday
7,-5.85
8,1766.190944948854
9,1.0
10,752.5077794605232
11,1.0
12,752.5077794605232
13,1766.190944948854
14,2.2668522663944077
15,25.72012920415438
16,11.689677377588226
17,-0.5256652039284973
18,1.4768307155209997
2,1, 1, 1, 0,11,30.00,45.00,Tuesday
7,-5.425
8,1740.4832380327117
9,1.0
10,742.5988714321785
11,1.0
12,742.5988714321785
13,1740.4832380327117
14,2.390450263003565
15,25.571681017638999
16,11.732799290311732
17,-0.2265531222054733
18,1.6629689830637223
2,1, 1, 1, 0,11,45.00,60.00,Tuesday
7,-5.0
8,1702.0518597121073
9,1.0
10,727.8169025450712
11,1.0
12,727.8169025450712
13,1702.0518597121073
14,2.5107153673492914
15,25.341777071535029
16,11.682325060321432
17,0.040250540689783068
18,1.8253800770077243
2,1, 1, 1, 0,12, 0.00,15.00,Tuesday
7,-4.575
8,1635.6982778457269
9,1.0
10,700.3759009170325
11,1.0
12,700.3759009170325
13,1635.6982778457269
14,2.585637261907731
15,24.598605593452935
16,11.45401205464583
17,0.24634855226895525
18,1.9601795837517913
2,1, 1, 1, 0,12,15.00,30.00,Tuesday
7,-4.15
8,1584.1822507707826
9,1.0
10,681.6705029034473
11,1.0
12,681.6705029034473
13,1584.1822507707826
14,2.6770394965379924
15,24.267587707042528
16,11.325318106793248
17,0.5248204557362328
18,2.0732004947230275
2,1, 1, 1, 0,12,30.00,45.00,Tuesday
7,-3.7249999999999998
8,1386.7884648429923
9,1.0
10,602.01865277251
11,1.0
12,602.01865277251
13,1386.7884648429923
14,2.5841209414704644
15,21.238915508642596
16,10.353045727898348
17,0.2996102863791066
18,2.1503064627242929
2,1, 1, 1, 0,12,45.00,60.00,Tuesday
7,-3.3
8,1130.2896420139664
9,1.0
10,493.55004396206007
11,1.0
12,493.55004396206007
13,1130.2896420139664
14,2.4064028855897097
15,17.05972125305152
16,8.895906961532433
17,-0.18191611222664506
18,2.1767587289445506
2,1, 1, 1, 0,13, 0.00,15.00,Tuesday
7,-3.0249999999999996
8,926.9697700398867
9,1.0
10,412.335026418112
11,1.0
12,412.335026418112
13,926.9697700398867
14,2.291859914017092
15,14.214310883691989
16,7.750185605570948
17,-0.5124227636021033
18,2.1575086816952235
2,1, 1, 1, 0,13,15.00,30.00,Tuesday
7,-2.75
8,673.6692877186736
9,1.0
10,305.94037763660148
11,1.0
12,305.94037763660148
13,673.6692877186736
14,2.062242554504602
15,10.039804070105463
16,6.198817358288238
17,-1.0771603503609413
18,2.097724619060637
2,1, 1, 1, 0,13,30.00,45.00,Tuesday
7,-2.475
8,612.4821658219637
9,1.0
10,281.0763483922329
11,1.0
12,281.0763483922329
13,612.4821658219637
14,2.037064569247112
15,9.527168262276382
16,5.811736445052816
17,-0.9530228406248398
18,2.0312421048229418
2,1, 1, 1, 0,13,45.00,60.00,Tuesday
7,-2.2
8,552.552520277972
9,1.0
10,256.7721209415886
11,1.0
12,256.7721209415886
13,552.552520277972
14,2.005868125779028
15,8.918101493568339
16,5.4670647379218739
17,-0.8071713472338615
18,1.9783797483649364
2,1, 1, 1, 0,14, 0.00,15.00,Tuesday
7,-1.9250000000000003
8,449.8411357962977
9,1.0
10,210.73276284570657
11,1.0
12,210.73276284570657
13,449.8411357962977
14,1.9139700791812627
15,7.369415381180853
16,4.771555901317129
17,-0.9031210714157396
18,1.9339750245154655
2,1, 1, 1, 0,14,15.00,30.00,Tuesday
7,-1.6500000000000002
8,396.7537665575463
9,1.0
10,189.38488290342594
11,1.0
12,189.38488290342594
13,396.7537665575463
14,1.8934851580196806
15,6.9633734415871
16,4.442308403137872
17,-0.7933900193511931
18,1.8972210857193666
2,1, 1, 1, 0,14,30.00,45.00,Tuesday
7,-1.375
8,379.3266897359249
9,1.0
10,179.3940297802914
11,1.0
12,179.3940297802914
13,379.3266897359249
14,1.897969308951714
15,7.083174755638683
16,4.313823698095064
17,-0.5709003735216811
18,1.8692620208127578
2,1, 1, 1, 0,14,45.00,60.00,Tuesday
7,-1.1
8,361.3465167603399
9,1.0
10,169.43349014176136
11,1.0
12,169.43349014176136
13,361.3465167603399
14,1.9021141275487597
15,7.179804598858987
16,4.185202699447814
17,-0.3491295614904857
18,1.8489827872366896
2,1, 1, 1, 0,15, 0.00,15.00,Tuesday
7,-1.1
8,379.75098608822659
9,1.0
10,178.15692317953907
11,1.0
12,178.15692317953907
13,379.75098608822659
14,1.945647387865735
15,7.993690386171757
16,4.326312265057197
17,-0.2340768702096625
18,1.8384957074646463
2,1, 1, 1, 0,15,15.00,30.00,Tuesday
7,-1.1
8,356.65544888641286
9,1.0
10,166.40516310952945
11,1.0
12,166.40516310952945
13,356.65544888641286
14,1.9157275992000263
15,7.629405821488993
16,4.144771310554802
17,-0.3233282904583348
18,1.8312933449214036
2,1, 1, 1, 0,15,30.00,45.00,Tuesday
7,-1.1
8,299.30897077907687
9,1.0
10,140.8967369711617
11,1.0
12,140.8967369711617
13,299.30897077907687
14,1.8366966109817509
15,6.420865080401614
16,3.7165076628178328
17,-0.5969772825086466
18,1.816153724388056
2,1, 1, 1, 0,15,45.00,60.00,Tuesday
7,-1.1
8,245.01101588106585
9,1.0
10,116.57355796743004
11,1.0
12,116.57355796743004
13,245.01101588106585
14,1.7496756316755487
15,5.207324165929737
16,3.2859444226511416
17,-0.8760128473785471
18,1.7877211671476486
2,1, 1, 1, 0,16, 0.00,15.00,Tuesday
7,-1.1
8,193.3619366811613
9,1.0
10,93.14939272689483
11,1.0
12,93.14939272689483
13,193.3619366811613
14,1.6692440897702963
15,4.149608644236004
16,2.8626021805757206
17,-1.0931638479723916
18,1.7472559486300106
2,1, 1, 1, 0,16,15.00,30.00,Tuesday
7,-1.1
8,119.36636342751545
9,1.0
10,57.94047897402063
11,1.0
12,57.94047897402063
13,119.36636342751545
14,1.522382978296351
15,2.0178059874588238
16,2.204568866872819
17,-1.5069293466907539
18,1.6918508507544814
2,1, 1, 1, 0,16,30.00,45.00,Tuesday
7,-1.1
8,91.9639739168048
9,1.0
10,45.38251793443488
11,1.0
12,45.38251793443488
13,91.9639739168048
14,1.4690424435785326
15,1.3982866259559415
16,1.9185643779170505
17,-1.63571816014786
18,1.629096500724152
2,1, 1, 1, 0,16,45.00,60.00,Tuesday
7,-1.1
8,63.83988587375654
9,1.0
10,32.02625108222755
11,1.0
12,32.02625108222755
13,63.83988587375654
14,1.3860449644346363
15,0.5238660598958529
16,1.617956321275983
17,-1.798391111727483
18,1.564859512860252
2,1, 1, 1, 0,17, 0.00,15.00,Tuesday
7,-1.1
8,34.880124245395318
9,1.0
10,17.762198626050539
11,1.0
12,17.762198626050539
13,34.880124245395318
14,1.275362452326918
15,-0.7426677962466551
16,1.2766383871803556
17,-2.0954570246919959
18,1.4972538372355307
2,1, 1, 1, 0,17,15.00,30.00,Tuesday
7,-1.1
8,0.0
9,0.0
10,0.0
11,0.0
12,0.0
13,0.0
14,1.1189935428086444
15,-2.5862091266778459
16,0.879127545915253
17,-2.389644153486074
18,1.4161271072270585
2,1, 1, 1, 0,17,30.00,45.00,Tuesday
7,-1.1
8,0.0
9,0.0
10,0.0
11,0.0
12,0.0
13,0.0
14,1.08037009396223
15,-2.7285012697299444
16,0.7903106191637903
17,-2.480126662070802
18,1.3306145891216974
2,1, 1, 1, 0,17,45.00,60.00,Tuesday
7,-1.1
8,0.0
9,0.0
10,0.0
11,0.0
12,0.0
13,0.0
14,1.0246414410089242
15,-2.9316098543061614
16,0.7372944679711964
17,-2.5830438123966248
18,1.2547725562145649
2,1, 1, 1, 0,18, 0.00,15.00,Tuesday
7,-1.25
8,0.0
9,0.0
10,0.0
11,0.0
12,0.0
13,0.0
14,0.9799185186010502
15,-3.0778597918472796
16,0.6727608654595088
17,-2.7342704231834888
18,1.1938094438792202
2,1, 1, 1, 0,18,15.00,30.00,Tuesday
7,-1.4
8,0.0
9,0.0
10,0.0
11,0.0
12,0.0
13,0.0
14,0.9403539087942995
15,-3.230215815914738
16,0.624531920424829
17,-2.8730380756408069
18,1.1459466726817976
2,1, 1, 1, 0,18,30.00,45.00,Tuesday
7,-1.5499999999999999
8,0.0
9,0.0
10,0.0
11,0.0
12,0.0
13,0.0
14,0.9041952223689531
15,-3.3819122661828464
16,0.5766308501158051
17,-3.016245682498379
18,1.1069929941638726
2,1, 1, 1, 0,18,45.00,60.00,Tuesday
7,-1.7
8,0.0
9,0.0
10,0.0
11,0.0
12,0.0
13,0.0
14,0.8708875878152013
15,-3.5336692117559216
16,0.531781986664214
17,-3.158847559221954
18,1.0733470383611124
2,1, 1, 1, 0,19, 0.00,15.00,Tuesday
7,-1.825
8,0.0
9,0.0
10,0.0
11,0.0
12,0.0
13,0.0
14,0.8658746443862704
15,-3.3677150452085775
16,0.5080991444871756
17,-3.1305364089254228
18,1.0463760647681229
2,1, 1, 1, 0,19,15.00,30.00,Tuesday
7,-1.9500000000000002
8,0.0
9,0.0
10,0.0
11,0.0
12,0.0
13,0.0
14,0.8617784727486089
15,-3.285271030470746
16,0.49553181884652988
17,-3.1322777808903767
18,1.0275444497225644
2,1, 1, 1, 0,19,30.00,45.00,Tuesday
7,-2.075
8,0.0
9,0.0
10,0.0
11,0.0
12,0.0
13,0.0
14,0.8521939538744087
15,-3.35480261180505
16,0.47977797986379758
17,-3.215861805855468
18,1.0151646835353674
2,1, 1, 1, 0,19,45.00,60.00,Tuesday
7,-2.2
8,0.0
9,0.0
10,0.0
11,0.0
12,0.0
13,0.0
14,0.844957772860414
15,-3.318736888396335
16,0.4694160044692808
17,-3.2336082157698344
18,1.0061111024144625
2,1, 1, 1, 0,20, 0.00,15.00,Tuesday
7,-1.9250000000000003
8,0.0
9,0.0
10,0.0
11,0.0
12,0.0
13,0.0
14,0.853744146918116
15,-3.0139982481745508
16,0.5004026501786711
17,-2.961309243828282
18,0.999560211529114
2,1, 1, 1, 0,20,15.00,30.00,Tuesday
7,-1.6500000000000002
8,0.0
9,0.0
10,0.0
11,0.0
12,0.0
13,0.0
14,0.8631454543063711
15,-2.712667071228413
16,0.5326742047426478
17,-2.6870459965687134
18,0.9954884812699827
2,1, 1, 1, 0,20,30.00,45.00,Tuesday
7,-1.375
8,0.0
9,0.0
10,0.0
11,0.0
12,0.0
13,0.0
14,0.8742062549735125
15,-2.412785275532914
16,0.5661917696423302
17,-2.4127811905372029
18,0.9936804783141291
2,1, 1, 1, 0,20,45.00,60.00,Tuesday
7,-1.1
8,0.0
9,0.0
10,0.0
11,0.0
12,0.0
13,0.0
14,0.8864223869705823
15,-2.1143235575275884
16,0.6012264599825699
17,-2.1384941306055795
18,0.9937218508196092
2,1, 1, 1, 0,21, 0.00,15.00,Tuesday
7,-1.25
8,0.0
9,0.0
10,0.0
11,0.0
12,0.0
13,0.0
14,0.854357403108097
15,-2.4097374797889827
16,0.5708059133962706
17,-2.3718273505885465
18,0.9903368291469279
2,1, 1, 1, 0,21,15.00,30.00,Tuesday
7,-1.4
8,0.0
9,0.0
10,0.0
11,0.0
12,0.0
13,0.0
14,0.8199176951030731
15,-2.6338203708946388
16,0.5308124965387151
17,-2.5486467452993795
18,0.9787661457974196
2,1, 1, 1, 0,21,30.00,45.00,Tuesday
7,-1.5499999999999999
8,0.0
9,0.0
10,0.0
11,0.0
12,0.0
13,0.0
14,0.7726411141387933
15,-2.996600184877185
16,0.4751028361019394
17,-2.80437816325923
18,0.9570052147342686
2,1, 1, 1, 0,21,45.00,60.00,Tuesday
7,-1.7
8,0.0
9,0.0
10,0.0
11,0.0
12,0.0
13,0.0
14,0.7203628895217488
15,-3.469485446195445
16,0.4065079086780088
17,-3.0971598375339228
18,0.9262281859719902
2,1, 1, 1, 0,22, 0.00,15.00,Tuesday
7,-1.5499999999999999
8,0.0
9,0.0
10,0.0
11,0.0
12,0.0
13,0.0
14,0.7437623833801351
15,-2.9568736794732817
16,0.41519006609814826
17,-2.77762713414711
18,0.8995304220721164
2,1, 1, 1, 0,22,15.00,30.00,Tuesday
7,-1.4
8,0.0
9,0.0
10,0.0
11,0.0
12,0.0
13,0.0
14,0.7586177324580413
15,-2.609697265905287
16,0.4481616011189544
17,-2.5290287236555288
18,0.8848631164590431
2,1, 1, 1, 0,22,30.00,45.00,Tuesday
7,-1.25
8,0.0
9,0.0
10,0.0
11,0.0
12,0.0
13,0.0
14,0.7694684830776286
15,-2.3819568733472118
16,0.4740596480738759
17,-2.3475704864938509
18,0.8808408314679007
2,1, 1, 1, 0,22,45.00,60.00,Tuesday
7,-1.1
8,0.0
9,0.0
10,0.0
11,0.0
12,0.0
13,0.0
14,0.7848309449062577
15,-2.085608515574673
16,0.5081362173082198
17,-2.112470255070207
18,0.8829320132193856
2,1, 1, 1, 0,23, 0.00,15.00,Tuesday
7,-1.25
8,0.0
9,0.0
10,0.0
11,0.0
12,0.0
13,0.0
14,0.7537499738535064
15,-2.3895053800016985
16,0.47027845719219388
17,-2.424715199109187
18,0.8824779641969341
2,1, 1, 1, 0,23,15.00,30.00,Tuesday
7,-1.4
8,0.0
9,0.0
10,0.0
11,0.0
12,0.0
13,0.0
14,0.7222527807949751
15,-2.6940623962140135
16,0.4138867121654357
17,-2.738614124949322
18,0.8739640456536866
2,1, 1, 1, 0,23,30.00,45.00,Tuesday
7,-1.5499999999999999
8,0.0
9,0.0
10,0.0
11,0.0
12,0.0
13,0.0
14,0.6880891044790138
15,-2.9990677973498607
16,0.3559058811666773
17,-3.0523430963394277
18,0.85707918832835
2,1, 1, 1, 0,23,45.00,60.00,Tuesday
7,-1.7
8,0.0
9,0.0
10,0.0
11,0.0
12,0.0
13,0.0
14,0.6507532192577293
15,-3.304443641548133
16,0.29505769878045387
17,-3.366110459256106
18,0.833783688988855
2,1, 1, 1, 0,24, 0.00,15.00,Tuesday
7,-1.7
8,0.0
9,0.0
10,0.0
11,0.0
12,0.0
13,0.0
14,0.6303576039712233
15,-3.357973575585895
16,0.2642781149717166
17,-3.4231020261762525
18,0.8086357501800181
2,1, 1, 1, 0,24,15.00,30.00,Tuesday
7,-1.7
8,0.0
9,0.0
10,0.0
11,0.0
12,0.0
13,0.0
14,0.6079657797938032
15,-3.412333883546187
16,0.23872102545328745
17,-3.483448212688927
18,0.7846441084533858
2,1, 1, 1, 0,24,30.00,45.00,Tuesday
7,-1.7
8,0.0
9,0.0
10,0.0
11,0.0
12,0.0
13,0.0
14,0.5859107679923676
15,-3.4666144825918105
16,0.21261545655113424
17,-3.544020705377818
18,0.7623704382756749
2,1, 1, 1, 0,24,45.00,60.00,Tuesday
7,-1.7
8,0.0
9,0.0
10,0.0
11,0.0
12,0.0
13,0.0
14,0.5642988665940192
15,-3.5208893809553727
16,0.18693589621926777
17,-3.6045042550712198
18,0.7412985380342866
End of Data
 Number of Records Written=        1152
