Program Version,EnergyPlus, Version 9.5.0-de239b2e5f, YMD=2023.02.16 18:15
1,5,Environment Title[],Latitude[deg],Longitude[deg],Time Zone[],Elevation[m]
2,8,Day of Simulation[],Month[],Day of Month[],DST Indicator[1=yes 0=no],Hour[],StartMinute[],EndMinute[],DayType
3,5,Cumulative Day of Simulation[],Month[],Day of Month[],DST Indicator[1=yes 0=no],DayType  ! When Daily Report Variables Requested
4,2,Cumulative Days of Simulation[],Month[]  ! When Monthly Report Variables Requested
5,1,Cumulative Days of Simulation[] ! When Run Period Report Variables Requested
6,1,Calendar Year of Simulation[] ! When Annual Report Variables Requested
7,1,Environment,Site Outdoor Air Drybulb Temperature [C] !TimeStep
8,1,ZONE ONE,Zone Windows Total Transmitted Solar Radiation Rate [W] !TimeStep
9,1,ZN001:WALL001,Surface Outside Face Sunlit Fraction [] !TimeStep
10,1,ZN001:WALL001,Surface Outside Face Incident Solar Radiation Rate per Area [W/m2] !TimeStep
11,1,ZN001:WALL001:WIN001,Surface Outside Face Sunlit Fraction [] !TimeStep
12,1,ZN001:WALL001:WIN001,Surface Outside Face Incident Solar Radiation Rate per Area [W/m2] !TimeStep
13,1,ZN001:WALL001:WIN001,Surface Window Transmitted Solar Radiation Rate [W] !TimeStep
14,1,ZN001:WALL001,Surface Inside Face Temperature [C] !TimeStep
15,1,ZN001:WALL001,Surface Outside Face Temperature [C] !TimeStep
16,1,ZN001:WALL001:WIN001,Surface Inside Face Temperature [C] !TimeStep
17,1,ZN001:WALL001:WIN001,Surface Outside Face Temperature [C] !TimeStep
18,1,ZONE ONE,Zone Mean Air Temperature [C] !TimeStep
End of Data Dictionary
1,RUN PERIOD 1,  41.98, -87.92,  -6.00, 201.00
2,1, 1, 1, 0, 1, 0.00,15.00,Tuesday
7,-4.324999999999999
8,0.0
9,0.0
10,0.0
11,0.0
12,0.0
13,0.0
14,1.5348498141409444
15,-5.976011072536571
16,1.0504673677783104
17,-5.894983581911049
18,1.8928736902564938
2,1, 1, 1, 0, 1,15.00,30.00,Tuesday
7,-6.949999999999999
8,0.0
9,0.0
10,0.0
11,0.0
12,0.0
13,0.0
14,1.3675137278954475
15,-8.443909478294945
16,0.725105460914051
17,-8.205426704837464
18,1.820339381377274
2,1, 1, 1, 0, 1,30.00,45.00,Tuesday
7,-9.575
8,0.0
9,0.0
10,0.0
11,0.0
12,0.0
13,0.0
14,1.1834996498066726
15,-10.919958987714816
16,0.3979091868901605
17,-10.523221228722833
18,1.7189230499937574
2,1, 1, 1, 0, 1,45.00,60.00,Tuesday
7,-12.2
8,0.0
9,0.0
10,0.0
11,0.0
12,0.0
13,0.0
14,0.9859106978529552
15,-13.402553542074829
16,0.058353666662242179
17,-12.859762101783645
18,1.5963800776590398
2,1, 1, 1, 0, 2, 0.00,15.00,Tuesday
7,-12.075
8,0.0
9,0.0
10,0.0
11,0.0
12,0.0
13,0.0
14,0.9401455563303179
15,-13.203978962670052
16,-0.036449640342993919
17,-12.714664403615018
18,1.4839771004461207
2,1, 1, 1, 0, 2,15.00,30.00,Tuesday
7,-11.95
8,0.0
9,0.0
10,0.0
11,0.0
12,0.0
13,0.0
14,0.8791357193319986
15,-13.026514491187215
16,-0.07892358972344482
17,-12.529623628236209
18,1.398084386494459
2,1, 1, 1, 0, 2,30.00,45.00,Tuesday
7,-11.825
8,0.0
9,0.0
10,0.0
11,0.0
12,0.0
13,0.0
14,0.8326596024106333
15,-12.847941296077739
16,-0.11729466933240929
17,-12.353713729725769
18,1.3357564501852009
2,1, 1, 1, 0, 2,45.00,60.00,Tuesday
7,-11.7
8,0.0
9,0.0
10,0.0
11,0.0
12,0.0
13,0.0
14,0.7961440833564374
15,-12.669426345612939
16,-0.1438957698435388
17,-12.176968047483001
18,1.288218767874925
2,1, 1, 1, 0, 3, 0.00,15.00,Tuesday
7,-11.549999999999999
8,0.0
9,0.0
10,0.0
11,0.0
12,0.0
13,0.0
14,0.7606061259717637
15,-12.545002336860812
16,-0.1663656386350567
17,-12.051262409289564
18,1.2475236328351456
2,1, 1, 1, 0, 3,15.00,30.00,Tuesday
7,-11.399999999999999
8,0.0
9,0.0
10,0.0
11,0.0
12,0.0
13,0.0
14,0.7282756917397247
15,-12.422010331670812
16,-0.18828600684452113
17,-11.919506068450233
18,1.2093729206581599
2,1, 1, 1, 0, 3,30.00,45.00,Tuesday
7,-11.25
8,0.0
9,0.0
10,0.0
11,0.0
12,0.0
13,0.0
14,0.6968548493114043
15,-12.300625846167288
16,-0.20836774252398983
17,-11.787927088544393
18,1.1723108814899058
2,1, 1, 1, 0, 3,45.00,60.00,Tuesday
7,-11.1
8,0.0
9,0.0
10,0.0
11,0.0
12,0.0
13,0.0
14,0.6668737272304263
15,-12.180913280532142
16,-0.22780965816832578
17,-11.657076619767168
18,1.1361525838157134
2,1, 1, 1, 0, 4, 0.00,15.00,Tuesday
7,-11.1
8,0.0
9,0.0
10,0.0
11,0.0
12,0.0
13,0.0
14,0.6317425366994822
15,-12.14997168286073
16,-0.26021876190810647
17,-11.64280194770879
18,1.1003374076139303
2,1, 1, 1, 0, 4,15.00,30.00,Tuesday
7,-11.1
8,0.0
9,0.0
10,0.0
11,0.0
12,0.0
13,0.0
14,0.5981410760163892
15,-12.120141827378119
16,-0.2942055926843068
17,-11.637658370501072
18,1.0646222296371324
2,1, 1, 1, 0, 4,30.00,45.00,Tuesday
7,-11.1
8,0.0
9,0.0
10,0.0
11,0.0
12,0.0
13,0.0
14,0.564478450738089
15,-12.092009791689773
16,-0.3253234485987946
17,-11.630027499164385
18,1.0289750175440156
2,1, 1, 1, 0, 4,45.00,60.00,Tuesday
7,-11.1
8,0.0
9,0.0
10,0.0
11,0.0
12,0.0
13,0.0
14,0.5308507543063801
15,-12.065391618729955
16,-0.35675789897879897
17,-11.622255478929674
18,0.9934200012555052
2,1, 1, 1, 0, 5, 0.00,15.00,Tuesday
7,-10.975
8,0.0
9,0.0
10,0.0
11,0.0
12,0.0
13,0.0
14,0.5035709387353938
15,-11.943047715246032
16,-0.3743229769343088
17,-11.511134054551804
18,0.9587398021031577
2,1, 1, 1, 0, 5,15.00,30.00,Tuesday
7,-10.85
8,0.0
9,0.0
10,0.0
11,0.0
12,0.0
13,0.0
14,0.4754333345029775
15,-11.820840575526605
16,-0.3923467957246203
17,-11.39756508991286
18,0.9252766584325954
2,1, 1, 1, 0, 5,30.00,45.00,Tuesday
7,-10.725
8,0.0
9,0.0
10,0.0
11,0.0
12,0.0
13,0.0
14,0.4481470689225544
15,-11.698581425716715
16,-0.4102150172243455
17,-11.28382607957451
18,0.8928545917873242
2,1, 1, 1, 0, 5,45.00,60.00,Tuesday
7,-10.6
8,0.0
9,0.0
10,0.0
11,0.0
12,0.0
13,0.0
14,0.42151348226073728
15,-11.576337126793807
16,-0.42737528522059167
17,-11.170025403869431
18,0.8612045048966076
2,1, 1, 1, 0, 6, 0.00,15.00,Tuesday
7,-10.6
8,0.0
9,0.0
10,0.0
11,0.0
12,0.0
13,0.0
14,0.3867526683818547
15,-11.577042905452732
16,-0.45935213652046516
17,-11.1678454395323
18,0.8289790593001488
2,1, 1, 1, 0, 6,15.00,30.00,Tuesday
7,-10.6
8,0.0
9,0.0
10,0.0
11,0.0
12,0.0
13,0.0
14,0.35352928427348437
15,-11.577629007716967
16,-0.4913130330408535
17,-11.169123602601758
18,0.7955420530552363
2,1, 1, 1, 0, 6,30.00,45.00,Tuesday
7,-10.6
8,0.0
9,0.0
10,0.0
11,0.0
12,0.0
13,0.0
14,0.31970773537755517
15,-11.578291979972544
16,-0.5228184600085797
17,-11.171250044231443
18,0.7611289348217516
2,1, 1, 1, 0, 6,45.00,60.00,Tuesday
7,-10.6
8,0.0
9,0.0
10,0.0
11,0.0
12,0.0
13,0.0
14,0.2855713294347412
15,-11.578950668597919
16,-0.5547745220901561
17,-11.17367546859316
18,0.7261776482286736
2,1, 1, 1, 0, 7, 0.00,15.00,Tuesday
7,-10.6
8,0.0
9,0.0
10,0.0
11,0.0
12,0.0
13,0.0
14,0.2546616764810367
15,-11.553433014774795
16,-0.5850924183220059
17,-11.167820668425862
18,0.6915352794934637
2,1, 1, 1, 0, 7,15.00,30.00,Tuesday
7,-10.6
8,0.0
9,0.0
10,0.0
11,0.0
12,0.0
13,0.0
14,0.22262467876560017
15,-11.529266111913476
16,-0.6142805974538987
17,-11.160068120735446
18,0.6575242694305659
2,1, 1, 1, 0, 7,30.00,45.00,Tuesday
7,-10.6
8,0.0
9,0.0
10,0.0
11,0.0
12,0.0
13,0.0
14,0.19095857033614956
15,-11.50628794414031
16,-0.6438991157853025
17,-11.152159311174615
18,0.6240176681888746
2,1, 1, 1, 0, 7,45.00,60.00,Tuesday
7,-10.6
8,0.0
9,0.0
10,0.0
11,0.0
12,0.0
13,0.0
14,0.1595599897660873
15,-11.484467001178468
16,-0.6732172039430111
17,-11.144373664161549
18,0.5908382371142398
2,1, 1, 1, 0, 8, 0.00,15.00,Tuesday
7,-10.45
8,0.0
9,0.0
10,0.0
11,0.0
12,0.0
13,0.0
14,0.12604810077959387
15,-11.436645858588485
16,-0.6971864807240991
17,-11.104272822591952
18,0.5571979336433894
2,1, 1, 1, 0, 8,15.00,30.00,Tuesday
7,-10.3
8,57.69019600974546
9,1.0
10,22.819555959623899
11,1.0
12,22.819555959623899
13,57.69019600974546
14,0.19398584471668746
15,-9.763978374971354
16,-0.29020250032073138
17,-10.752999016995432
18,0.5367209484032264
2,1, 1, 1, 0, 8,30.00,45.00,Tuesday
7,-10.15
8,285.3800070249231
9,1.0
10,109.75755355442667
11,1.0
12,109.75755355442667
13,285.3800070249231
14,0.5340627970222379
15,-3.4059044525245456
16,1.4605452187109336
17,-9.477116308651717
18,0.5654783024114375
2,1, 1, 1, 0, 8,45.00,60.00,Tuesday
7,-10.0
8,524.6055123031704
9,1.0
10,195.8764694434918
11,1.0
12,195.8764694434918
13,524.6055123031704
14,0.9531852538362682
15,3.0872169061231888
16,3.08251793269568
17,-8.19985469052665
18,0.6531898004279697
2,1, 1, 1, 0, 9, 0.00,15.00,Tuesday
7,-9.725
8,768.4491717444191
9,1.0
10,278.97248314719988
11,1.0
12,278.97248314719988
13,768.4491717444191
14,1.2766208097929386
15,8.268263960869558
16,4.569873570313575
17,-7.0889307419280389
18,0.7921904690841234
2,1, 1, 1, 0, 9,15.00,30.00,Tuesday
7,-9.45
8,1030.6249243631592
9,1.0
10,364.91995730569456
11,1.0
12,364.91995730569456
13,1030.6249243631592
14,1.6455524389525763
15,13.348031290646818
16,6.056056816147418
17,-5.995136077457289
18,0.9692294576464635
2,1, 1, 1, 0, 9,30.00,45.00,Tuesday
7,-9.175
8,1210.4804273274606
9,1.0
10,420.35879993239237
11,1.0
12,420.35879993239237
13,1210.4804273274606
14,1.8852767147766104
15,16.10733667836871
16,7.058100909322093
17,-5.332540242909545
18,1.1653087356377752
2,1, 1, 1, 0, 9,45.00,60.00,Tuesday
7,-8.9
8,1398.6777532574607
9,1.0
10,478.00138373643099
11,1.0
12,478.00138373643099
13,1398.6777532574607
14,2.1698252706256877
15,19.102854821713519
16,8.05661404470925
17,-4.639773443182662
18,1.374279216512548
2,1, 1, 1, 0,10, 0.00,15.00,Tuesday
7,-8.350000000000002
8,1592.0755180216234
9,1.0
10,536.9185644770597
11,1.0
12,536.9185644770597
13,1592.0755180216234
14,2.3936225224131779
15,20.22316694560936
16,9.088651313650303
17,-3.8263043604193287
18,1.5982879967476774
2,1, 1, 1, 0,10,15.00,30.00,Tuesday
7,-7.800000000000001
8,1792.701648704855
9,1.0
10,598.0969199229219
11,1.0
12,598.0969199229219
13,1792.701648704855
14,2.6413839712005346
15,21.478343295602465
16,10.147538553709638
17,-3.036984071517736
18,1.8341158990678697
2,1, 1, 1, 0,10,30.00,45.00,Tuesday
7,-7.25
8,1928.119448426844
9,1.0
10,637.6133352894237
11,1.0
12,637.6133352894237
13,1928.119448426844
14,2.8216983254355307
15,21.53993639215552
16,10.895696168829204
17,-2.4803928128498
18,2.068268875083649
2,1, 1, 1, 0,10,45.00,60.00,Tuesday
7,-6.7
8,2061.422449283195
9,1.0
10,676.6412284283772
11,1.0
12,676.6412284283772
13,2061.422449283195
14,3.016525747732595
15,21.701630081325616
16,11.614472113327566
17,-1.9269937725229057
18,2.2931212455168379
2,1, 1, 1, 0,11, 0.00,15.00,Tuesday
7,-6.275
8,2192.1032501103888
9,1.0
10,715.0112779846514
11,1.0
12,715.0112779846514
13,2192.1032501103888
14,3.287943565521126
15,23.798902636739635
16,12.332854008773609
17,-1.19626530851815
18,2.512111218243481
2,1, 1, 1, 0,11,15.00,30.00,Tuesday
7,-5.85
8,2319.457313777197
9,1.0
10,752.5077794605232
11,1.0
12,752.5077794605232
13,2319.457313777197
14,3.5441255609137927
15,25.733504062400994
16,13.038419196332143
17,-0.4777923086201099
18,2.7299406947337556
2,1, 1, 1, 0,11,30.00,45.00,Tuesday
7,-5.425
8,2285.6965649767259
9,1.0
10,742.5988714321785
11,1.0
12,742.5988714321785
13,2285.6965649767259
14,3.681414806922182
15,25.58505507325692
16,13.093590509220008
17,-0.17707156972744543
18,2.932463949008244
2,1, 1, 1, 0,11,45.00,60.00,Tuesday
7,-5.0
8,2235.2264038775226
9,1.0
10,727.8169025450712
11,1.0
12,727.8169025450712
13,2235.2264038775226
14,3.814857582846065
15,25.355329114188647
16,13.052929057096208
17,0.09167165812681333
18,3.110153622045231
2,1, 1, 1, 0,12, 0.00,15.00,Tuesday
7,-4.575
8,2148.0872974320998
9,1.0
10,700.3759009170325
11,1.0
12,700.3759009170325
13,2148.0872974320998
14,3.9012437826213128
15,24.61227723609599
16,12.830617003082523
17,0.298742113328899
18,3.258807109833118
2,1, 1, 1, 0,12,15.00,30.00,Tuesday
7,-4.15
8,2080.433669087304
9,1.0
10,681.6705029034473
11,1.0
12,681.6705029034473
13,2080.433669087304
14,4.006073386706667
15,24.281413455359407
16,12.711999257638354
17,0.5814214509430258
18,3.385081807117052
2,1, 1, 1, 0,12,30.00,45.00,Tuesday
7,-3.7249999999999998
8,1821.205491197466
9,1.0
10,602.01865277251
11,1.0
12,602.01865277251
13,1821.205491197466
14,3.912100923364138
15,21.2527605216613
16,11.7471481809323
17,0.3703430104445147
18,3.4735850908027969
2,1, 1, 1, 0,12,45.00,60.00,Tuesday
7,-3.3
8,1484.3573874927543
9,1.0
10,493.55004396206007
11,1.0
12,493.55004396206007
13,1484.3573874927543
14,3.727928102556699
15,17.073671082496408
16,10.281461529689011
17,-0.123200192210561
18,3.5077315554548886
2,1, 1, 1, 0,13, 0.00,15.00,Tuesday
7,-3.0249999999999996
8,1217.3467534298216
9,1.0
10,412.335026418112
11,1.0
12,412.335026418112
13,1217.3467534298216
14,3.6064260705721158
15,14.228403573332507
16,9.13261630607542
17,-0.44902196863762358
18,3.4936302706364215
2,1, 1, 1, 0,13,15.00,30.00,Tuesday
7,-2.75
8,884.698883173216
9,1.0
10,305.94037763660148
11,1.0
12,305.94037763660148
13,884.698883173216
14,3.3628694157256699
15,10.053460281096637
16,7.567781235300345
17,-1.0134981669308446
18,3.435345725213785
2,1, 1, 1, 0,13,30.00,45.00,Tuesday
7,-2.475
8,804.3446509208166
9,1.0
10,281.0763483922329
11,1.0
12,281.0763483922329
13,804.3446509208166
14,3.3388229865262475
15,9.542610924181167
16,7.170676580340853
17,-0.8860759692781812
18,3.3680719762294757
2,1, 1, 1, 0,13,45.00,60.00,Tuesday
7,-2.2
8,725.6418045118138
9,1.0
10,256.7721209415886
11,1.0
12,256.7721209415886
13,725.6418045118138
14,3.303998931888741
15,8.934208889435496
16,6.821744606206721
17,-0.7365770352810159
18,3.314010175137349
2,1, 1, 1, 0,14, 0.00,15.00,Tuesday
7,-1.9250000000000003
8,590.7556685446293
9,1.0
10,210.73276284570657
11,1.0
12,210.73276284570657
13,590.7556685446293
14,3.200517150605713
15,7.3826962984154929
16,6.112271345761428
17,-0.8322409419489532
18,3.267684640437771
2,1, 1, 1, 0,14,15.00,30.00,Tuesday
7,-1.6500000000000002
8,521.0384688260733
9,1.0
10,189.38488290342594
11,1.0
12,189.38488290342594
13,521.0384688260733
14,3.1829519236299936
15,6.980604511425394
16,5.773524413703512
17,-0.7188599839648759
18,3.228494166795268
2,1, 1, 1, 0,14,30.00,45.00,Tuesday
7,-1.375
8,498.15229057485149
9,1.0
10,179.3940297802914
11,1.0
12,179.3940297802914
13,498.15229057485149
14,3.1827620316461018
15,7.099699270564459
16,5.63353096793287
17,-0.4955245892919038
18,3.198152038490753
2,1, 1, 1, 0,14,45.00,60.00,Tuesday
7,-1.1
8,474.5397565900047
9,1.0
10,169.43349014176136
11,1.0
12,169.43349014176136
13,474.5397565900047
14,3.1829632641849296
15,7.197008343981969
16,5.492963000478653
17,-0.2726663793374655
18,3.1756191500429145
2,1, 1, 1, 0,15, 0.00,15.00,Tuesday
7,-1.1
8,498.70949945430098
9,1.0
10,178.15692317953907
11,1.0
12,178.15692317953907
13,498.70949945430098
14,3.231091993103319
15,8.013627338175523
16,5.63442304699106
17,-0.15424930434357976
18,3.162921514305309
2,1, 1, 1, 0,15,15.00,30.00,Tuesday
7,-1.1
8,468.37919296528846
9,1.0
10,166.40516310952945
11,1.0
12,166.40516310952945
13,468.37919296528846
14,3.1975156010398915
15,7.647651798640692
16,5.448823556249977
17,-0.24354127788797087
18,3.1534705173117789
2,1, 1, 1, 0,15,30.00,45.00,Tuesday
7,-1.1
8,393.0687015115151
9,1.0
10,140.8967369711617
11,1.0
12,140.8967369711617
13,393.0687015115151
14,3.1119071375639177
15,6.439059755796975
16,5.012231461967758
17,-0.5179196507465349
18,3.135557232558339
2,1, 1, 1, 0,15,45.00,60.00,Tuesday
7,-1.1
8,321.7616953401986
9,1.0
10,116.57355796743004
11,1.0
12,116.57355796743004
13,321.7616953401986
14,3.0188011178758695
15,5.227351407387088
16,4.5725186581481129
17,-0.7973532736049265
18,3.1038043036852609
2,1, 1, 1, 0,16, 0.00,15.00,Tuesday
7,-1.1
8,253.93333576075279
9,1.0
10,93.14939272689483
11,1.0
12,93.14939272689483
13,253.93333576075279
14,2.939473656941282
15,4.172505121864803
16,4.137838332799447
17,-1.0127366838436274
18,3.05878182713916
2,1, 1, 1, 0,16,15.00,30.00,Tuesday
7,-1.1
8,156.7583535986634
9,1.0
10,57.94047897402063
11,1.0
12,57.94047897402063
13,156.7583535986634
14,2.7861326966977026
15,2.042066605510852
16,3.461311718755667
17,-1.4279140573763698
18,2.9971816831389517
2,1, 1, 1, 0,16,30.00,45.00,Tuesday
7,-1.1
8,120.7720561106513
9,1.0
10,45.38251793443488
11,1.0
12,45.38251793443488
13,120.7720561106513
14,2.7279622180688198
15,1.4239996059172127
16,3.161632910694493
17,-1.5580215272462966
18,2.9275215761822848
2,1, 1, 1, 0,16,45.00,60.00,Tuesday
7,-1.1
8,83.83798514208277
9,1.0
10,32.02625108222755
11,1.0
12,32.02625108222755
13,83.83798514208277
14,2.6397216494471809
15,0.5522454807123928
16,2.8487251198765195
17,-1.7196219034400429
18,2.8565329190870809
2,1, 1, 1, 0,17, 0.00,15.00,Tuesday
7,-1.1
8,45.806462499356218
9,1.0
10,17.762198626050539
11,1.0
12,17.762198626050539
13,45.806462499356218
14,2.524396450138592
15,-0.7107757417422977
16,2.506377267806215
17,-2.0180518106943738
18,2.781883412307584
2,1, 1, 1, 0,17,15.00,30.00,Tuesday
7,-1.1
8,0.0
9,0.0
10,0.0
11,0.0
12,0.0
13,0.0
14,2.3627978617871125
15,-2.5529688633504916
16,2.092099724401237
17,-2.3233240671945625
18,2.692606121270669
2,1, 1, 1, 0,17,30.00,45.00,Tuesday
7,-1.1
8,0.0
9,0.0
10,0.0
11,0.0
12,0.0
13,0.0
14,2.318541627755881
15,-2.694104742993982
16,1.99879570689518
17,-2.410069282496295
18,2.60149850750305
2,1, 1, 1, 0,17,45.00,60.00,Tuesday
7,-1.1
8,0.0
9,0.0
10,0.0
11,0.0
12,0.0
13,0.0
14,2.2597068558544648
15,-2.894403524877667
16,1.942498859293778
17,-2.5109429561674689
18,2.523080891483087
2,1, 1, 1, 0,18, 0.00,15.00,Tuesday
7,-1.25
8,0.0
9,0.0
10,0.0
11,0.0
12,0.0
13,0.0
14,2.211837448814319
15,-3.041047575628592
16,1.8760611808068007
17,-2.6636873419503219
18,2.4610827058167614
2,1, 1, 1, 0,18,15.00,30.00,Tuesday
7,-1.4
8,0.0
9,0.0
10,0.0
11,0.0
12,0.0
13,0.0
14,2.1689027933117788
15,-3.1933589796529349
16,1.827191198819719
17,-2.8040152569589056
18,2.4123173195525098
2,1, 1, 1, 0,18,30.00,45.00,Tuesday
7,-1.5499999999999999
8,0.0
9,0.0
10,0.0
11,0.0
12,0.0
13,0.0
14,2.1314956746879467
15,-3.345021316052072
16,1.7783773657923803
17,-2.9486346317549989
18,2.372130232211437
2,1, 1, 1, 0,18,45.00,60.00,Tuesday
7,-1.7
8,0.0
9,0.0
10,0.0
11,0.0
12,0.0
13,0.0
14,2.0957597582894045
15,-3.496913747136913
16,1.7333218903576154
17,-3.0926301386706429
18,2.336848627889223
2,1, 1, 1, 0,19, 0.00,15.00,Tuesday
7,-1.825
8,0.0
9,0.0
10,0.0
11,0.0
12,0.0
13,0.0
14,2.0876860677514577
15,-3.3351182553974398
16,1.7057169218710442
17,-3.067804243427304
18,2.307916924321901
2,1, 1, 1, 0,19,15.00,30.00,Tuesday
7,-1.9500000000000002
8,0.0
9,0.0
10,0.0
11,0.0
12,0.0
13,0.0
14,2.0795184163749327
15,-3.2563557357814036
16,1.688814996979147
17,-3.0738592900930259
18,2.2868034360478366
2,1, 1, 1, 0,19,30.00,45.00,Tuesday
7,-2.075
8,0.0
9,0.0
10,0.0
11,0.0
12,0.0
13,0.0
14,2.0664266525927439
15,-3.326836117540374
16,1.672162953138013
17,-3.160206299103038
18,2.271828032824565
2,1, 1, 1, 0,19,45.00,60.00,Tuesday
7,-2.2
8,0.0
9,0.0
10,0.0
11,0.0
12,0.0
13,0.0
14,2.0567234040439295
15,-3.2940571129895868
16,1.657586562576114
17,-3.181714133717321
18,2.259985063819859
2,1, 1, 1, 0,20, 0.00,15.00,Tuesday
7,-1.9250000000000003
8,0.0
9,0.0
10,0.0
11,0.0
12,0.0
13,0.0
14,2.062310208018758
15,-2.9902057072282846
16,1.682093111105985
17,-2.908580012917298
18,2.2505701614792046
2,1, 1, 1, 0,20,15.00,30.00,Tuesday
7,-1.6500000000000002
8,0.0
9,0.0
10,0.0
11,0.0
12,0.0
13,0.0
14,2.0683625056220156
15,-2.6896272432765015
16,1.7072539943681023
17,-2.633156177420119
18,2.243594520967294
2,1, 1, 1, 0,20,30.00,45.00,Tuesday
7,-1.375
8,0.0
9,0.0
10,0.0
11,0.0
12,0.0
13,0.0
14,2.0756673573036705
15,-2.3904666499382918
16,1.7335168009183236
17,-2.3578046762919486
18,2.2387883014449225
2,1, 1, 1, 0,20,45.00,60.00,Tuesday
7,-1.1
8,0.0
9,0.0
10,0.0
11,0.0
12,0.0
13,0.0
14,2.084181050823447
15,-2.0926823632442779
16,1.7610580146749726
17,-2.082509120194686
18,2.2357219159499079
2,1, 1, 1, 0,21, 0.00,15.00,Tuesday
7,-1.25
8,0.0
9,0.0
10,0.0
11,0.0
12,0.0
13,0.0
14,2.0493541947156159
15,-2.3845633342505896
16,1.7321176894678843
17,-2.3128346712219924
18,2.2289013226824849
2,1, 1, 1, 0,21,15.00,30.00,Tuesday
7,-1.4
8,0.0
9,0.0
10,0.0
11,0.0
12,0.0
13,0.0
14,2.013043116780822
15,-2.606815711915929
16,1.6920584514884923
17,-2.488687863911423
18,2.2136340405585139
2,1, 1, 1, 0,21,30.00,45.00,Tuesday
7,-1.5499999999999999
8,0.0
9,0.0
10,0.0
11,0.0
12,0.0
13,0.0
14,1.9639340693571535
15,-2.965123592896395
16,1.6380743828585765
17,-2.7409338251113697
18,2.1881881172691188
2,1, 1, 1, 0,21,45.00,60.00,Tuesday
7,-1.7
8,0.0
9,0.0
10,0.0
11,0.0
12,0.0
13,0.0
14,1.9095940688664426
15,-3.4329916301076177
16,1.571445994681767
17,-3.030829135137651
18,2.1539787050272878
2,1, 1, 1, 0,22, 0.00,15.00,Tuesday
7,-1.5499999999999999
8,0.0
9,0.0
10,0.0
11,0.0
12,0.0
13,0.0
14,1.9280438052111704
15,-2.9264328210853036
16,1.5715047007142289
17,-2.7140000003209368
18,2.1241815967252855
2,1, 1, 1, 0,22,15.00,30.00,Tuesday
7,-1.4
8,0.0
9,0.0
10,0.0
11,0.0
12,0.0
13,0.0
14,1.938488634924825
15,-2.58329331496799
16,1.596510946966248
17,-2.4688734293455356
18,2.1067015744324379
2,1, 1, 1, 0,22,30.00,45.00,Tuesday
7,-1.25
8,0.0
9,0.0
10,0.0
11,0.0
12,0.0
13,0.0
14,1.946295841858494
15,-2.3573953870334249
16,1.6159848825911354
17,-2.2885924466839926
18,2.100053734335013
2,1, 1, 1, 0,22,45.00,60.00,Tuesday
7,-1.1
8,0.0
9,0.0
10,0.0
11,0.0
12,0.0
13,0.0
14,1.9577836877395483
15,-2.0644334469936096
16,1.6429256584737005
17,-2.0570223248536196
18,2.099484485506101
2,1, 1, 1, 0,23, 0.00,15.00,Tuesday
7,-1.25
8,0.0
9,0.0
10,0.0
11,0.0
12,0.0
13,0.0
14,1.9238967187131229
15,-2.368108660240013
16,1.6072888036151199
17,-2.3725718315669157
18,2.0959052388753909
2,1, 1, 1, 0,23,15.00,30.00,Tuesday
7,-1.4
8,0.0
9,0.0
10,0.0
11,0.0
12,0.0
13,0.0
14,1.8905522862989306
15,-2.6726452894061598
16,1.5527983880002126
17,-2.68924842760282
18,2.083864197006909
2,1, 1, 1, 0,23,30.00,45.00,Tuesday
7,-1.5499999999999999
8,0.0
9,0.0
10,0.0
11,0.0
12,0.0
13,0.0
14,1.8540673080909458
15,-2.977694491397328
16,1.4968254883142436
17,-3.0057130062320995
18,2.0633767265511619
2,1, 1, 1, 0,23,45.00,60.00,Tuesday
7,-1.7
8,0.0
9,0.0
10,0.0
11,0.0
12,0.0
13,0.0
14,1.8131605767241553
15,-3.2831045747564477
16,1.4376617633449769
17,-3.322189711863757
18,2.036529029991629
2,1, 1, 1, 0,24, 0.00,15.00,Tuesday
7,-1.7
8,0.0
9,0.0
10,0.0
11,0.0
12,0.0
13,0.0
14,1.7907964474715222
15,-3.336706144495325
16,1.4043550548931876
17,-3.379553386370276
18,2.008127407754638
2,1, 1, 1, 0,24,15.00,30.00,Tuesday
7,-1.7
8,0.0
9,0.0
10,0.0
11,0.0
12,0.0
13,0.0
14,1.765306472481367
15,-3.391164933155232
16,1.3768932476729106
17,-3.4404633564359985
18,1.9811783812792665
2,1, 1, 1, 0,24,30.00,45.00,Tuesday
7,-1.7
8,0.0
9,0.0
10,0.0
11,0.0
12,0.0
13,0.0
14,1.7403651344218774
15,-3.445488976318803
16,1.3485856889849402
17,-3.501610274375878
18,1.9560881749470856
2,1, 1, 1, 0,24,45.00,60.00,Tuesday
7,-1.7
8,0.0
9,0.0
10,0.0
11,0.0
12,0.0
13,0.0
14,1.7159383990955662
15,-3.4998126035758436
16,1.3208127976830043
17,-3.5626599292542098
18,1.932224484939683
End of Data
 Number of Records Written=        1152
