Program Version,EnergyPlus, Version 9.5.0-de239b2e5f, YMD=2023.02.16 18:15
1,5,Environment Title[],Latitude[deg],Longitude[deg],Time Zone[],Elevation[m]
2,8,Day of Simulation[],Month[],Day of Month[],DST Indicator[1=yes 0=no],Hour[],StartMinute[],EndMinute[],DayType
3,5,Cumulative Day of Simulation[],Month[],Day of Month[],DST Indicator[1=yes 0=no],DayType  ! When Daily Report Variables Requested
4,2,Cumulative Days of Simulation[],Month[]  ! When Monthly Report Variables Requested
5,1,Cumulative Days of Simulation[] ! When Run Period Report Variables Requested
6,1,Calendar Year of Simulation[] ! When Annual Report Variables Requested
7,1,Environment,Site Outdoor Air Drybulb Temperature [C] !TimeStep
8,1,ZONE ONE,Zone Windows Total Transmitted Solar Radiation Rate [W] !TimeStep
9,1,ZN001:WALL001,Surface Outside Face Sunlit Fraction [] !TimeStep
10,1,ZN001:WALL001,Surface Outside Face Incident Solar Radiation Rate per Area [W/m2] !TimeStep
11,1,ZN001:WALL001:WIN001,Surface Outside Face Sunlit Fraction [] !TimeStep
12,1,ZN001:WALL001:WIN001,Surface Outside Face Incident Solar Radiation Rate per Area [W/m2] !TimeStep
13,1,ZN001:WALL001:WIN001,Surface Window Transmitted Solar Radiation Rate [W] !TimeStep
14,1,ZN001:WALL001,Surface Inside Face Temperature [C] !TimeStep
15,1,ZN001:WALL001,Surface Outside Face Temperature [C] !TimeStep
16,1,ZN001:WALL001:WIN001,Surface Inside Face Temperature [C] !TimeStep
17,1,ZN001:WALL001:WIN001,Surface Outside Face Temperature [C] !TimeStep
18,1,ZONE ONE,Zone Mean Air Temperature [C] !TimeStep
End of Data Dictionary
1,RUN PERIOD 1,  41.98, -87.92,  -6.00, 201.00
2,1, 1, 1, 0, 1, 0.00,15.00,Tuesday
7,-4.324999999999999
8,0.0
9,0.0
10,0.0
11,0.0
12,0.0
13,0.0
14,1.4332695380121786
15,-5.977873351647301
16,0.8583884961593071
17,-5.832354082849747
18,1.787384076561582
2,1, 1, 1, 0, 1,15.00,30.00,Tuesday
7,-6.949999999999999
8,0.0
9,0.0
10,0.0
11,0.0
12,0.0
13,0.0
14,1.2653421688149987
15,-8.445787658229002
16,0.5061218935773013
17,-8.122309045778593
18,1.7141682277462079
2,1, 1, 1, 0, 1,30.00,45.00,Tuesday
7,-9.575
8,0.0
9,0.0
10,0.0
11,0.0
12,0.0
13,0.0
14,1.0805215602072207
15,-10.921882997573004
16,0.15370394447836589
17,-10.429212724348077
18,1.6116916295490245
2,1, 1, 1, 0, 1,45.00,60.00,Tuesday
7,-12.2
8,0.0
9,0.0
10,0.0
11,0.0
12,0.0
13,0.0
14,0.8819079010473153
15,-13.404522888121454
16,-0.21396969471800277
17,-12.735975751071976
18,1.487795275759869
2,1, 1, 1, 0, 2, 0.00,15.00,Tuesday
7,-12.075
8,0.0
9,0.0
10,0.0
11,0.0
12,0.0
13,0.0
14,0.8356264928935308
15,-13.2059843736522
16,-0.30617636054910238
17,-12.5943198440566
18,1.3742434211766382
2,1, 1, 1, 0, 2,15.00,30.00,Tuesday
7,-11.95
8,0.0
9,0.0
10,0.0
11,0.0
12,0.0
13,0.0
14,0.7740953174211261
15,-13.02852782578538
16,-0.3467654381150851
17,-12.411439331927852
18,1.2875927410819326
2,1, 1, 1, 0, 2,30.00,45.00,Tuesday
7,-11.825
8,0.0
9,0.0
10,0.0
11,0.0
12,0.0
13,0.0
14,0.7272908113232405
15,-12.84995356716755
16,-0.38298118537454686
17,-12.237656258984544
18,1.224832674122256
2,1, 1, 1, 0, 2,45.00,60.00,Tuesday
7,-11.7
8,0.0
9,0.0
10,0.0
11,0.0
12,0.0
13,0.0
14,0.6905771642800782
15,-12.671436757322985
16,-0.4073101188780015
17,-12.062918616174784
18,1.1770587492984098
2,1, 1, 1, 0, 3, 0.00,15.00,Tuesday
7,-11.549999999999999
8,0.0
9,0.0
10,0.0
11,0.0
12,0.0
13,0.0
14,0.6549029872626678
15,-12.547067678767215
16,-0.4275909897033898
17,-11.936839185636586
18,1.136225894129791
2,1, 1, 1, 0, 3,15.00,30.00,Tuesday
7,-11.399999999999999
8,0.0
9,0.0
10,0.0
11,0.0
12,0.0
13,0.0
14,0.6224733394372536
15,-12.424133301456802
16,-0.44739906170650559
17,-11.804618369156913
18,1.0979826503899509
2,1, 1, 1, 0, 3,30.00,45.00,Tuesday
7,-11.25
8,0.0
9,0.0
10,0.0
11,0.0
12,0.0
13,0.0
14,0.5909721542539342
15,-12.302809648310469
16,-0.46537877632442817
17,-11.67250310296015
18,1.0608515970036133
2,1, 1, 1, 0, 3,45.00,60.00,Tuesday
7,-11.1
8,0.0
9,0.0
10,0.0
11,0.0
12,0.0
13,0.0
14,0.5609275376842809
15,-12.183160945226698
16,-0.482718931450961
17,-11.541088443832962
18,1.024640942289923
2,1, 1, 1, 0, 4, 0.00,15.00,Tuesday
7,-11.1
8,0.0
9,0.0
10,0.0
11,0.0
12,0.0
13,0.0
14,0.525699972953557
15,-12.152157614300356
16,-0.5152903696402973
17,-11.529044820396905
18,0.9887587851719486
2,1, 1, 1, 0, 4,15.00,30.00,Tuesday
7,-11.1
8,0.0
9,0.0
10,0.0
11,0.0
12,0.0
13,0.0
14,0.49201658430693198
15,-12.122268504374786
16,-0.548565340589164
17,-11.526149630299415
18,0.9529599389976065
2,1, 1, 1, 0, 4,30.00,45.00,Tuesday
7,-11.1
8,0.0
9,0.0
10,0.0
11,0.0
12,0.0
13,0.0
14,0.4582551638721512
15,-12.094080305455071
16,-0.5796055894407459
17,-11.52103051149777
18,0.9172158613426408
2,1, 1, 1, 0, 4,45.00,60.00,Tuesday
7,-11.1
8,0.0
9,0.0
10,0.0
11,0.0
12,0.0
13,0.0
14,0.424526265890568
15,-12.067408822315148
16,-0.6108756262027555
17,-11.515723151106556
18,0.8815553889763304
2,1, 1, 1, 0, 5, 0.00,15.00,Tuesday
7,-10.975
8,0.0
9,0.0
10,0.0
11,0.0
12,0.0
13,0.0
14,0.3971709838025834
15,-11.94506476060274
16,-0.6270944165008245
17,-11.406873201639371
18,0.8467806144989322
2,1, 1, 1, 0, 5,15.00,30.00,Tuesday
7,-10.85
8,0.0
9,0.0
10,0.0
11,0.0
12,0.0
13,0.0
14,0.3689620524252557
15,-11.82285819966612
16,-0.6434919785857574
17,-11.294821030773165
18,0.8132443068763433
2,1, 1, 1, 0, 5,30.00,45.00,Tuesday
7,-10.725
8,0.0
9,0.0
10,0.0
11,0.0
12,0.0
13,0.0
14,0.34161570744616107
15,-11.700598908359208
16,-0.6597291165608681
17,-11.182537250305018
18,0.7807689309440786
2,1, 1, 1, 0, 5,45.00,60.00,Tuesday
7,-10.6
8,0.0
9,0.0
10,0.0
11,0.0
12,0.0
13,0.0
14,0.3149325873522848
15,-11.57835431902782
16,-0.6752515424961985
17,-11.070175182530875
18,0.749079721588592
2,1, 1, 1, 0, 6, 0.00,15.00,Tuesday
7,-10.6
8,0.0
9,0.0
10,0.0
11,0.0
12,0.0
13,0.0
14,0.2800984413596001
15,-11.579062543425707
16,-0.7065325820349813
17,-11.068172552621832
18,0.7168115436023218
2,1, 1, 1, 0, 6,15.00,30.00,Tuesday
7,-10.6
8,0.0
9,0.0
10,0.0
11,0.0
12,0.0
13,0.0
14,0.24680113908063676
15,-11.579649741232784
16,-0.7382371348975312
17,-11.06974303714469
18,0.6833180968118952
2,1, 1, 1, 0, 6,30.00,45.00,Tuesday
7,-10.6
8,0.0
9,0.0
10,0.0
11,0.0
12,0.0
13,0.0
14,0.2129023460333331
15,-11.580314411616654
16,-0.769465550896939
17,-11.07216795315776
18,0.6488352929872947
2,1, 1, 1, 0, 6,45.00,60.00,Tuesday
7,-10.6
8,0.0
9,0.0
10,0.0
11,0.0
12,0.0
13,0.0
14,0.17868501416055652
15,-11.5809748343694
16,-0.8011263323631965
17,-11.074906117025308
18,0.6138063850581809
2,1, 1, 1, 0, 7, 0.00,15.00,Tuesday
7,-10.6
8,0.0
9,0.0
10,0.0
11,0.0
12,0.0
13,0.0
14,0.14770380574037973
15,-11.555405506808773
16,-0.8313191540950129
17,-11.070810684693186
18,0.5790819141847408
2,1, 1, 1, 0, 7,15.00,30.00,Tuesday
7,-10.6
8,0.0
9,0.0
10,0.0
11,0.0
12,0.0
13,0.0
14,0.11558778401441018
15,-11.53119008065195
16,-0.8603455866268064
17,-11.065078345024972
18,0.5449864893678121
2,1, 1, 1, 0, 7,30.00,45.00,Tuesday
7,-10.6
8,0.0
9,0.0
10,0.0
11,0.0
12,0.0
13,0.0
14,0.08384261647179296
15,-11.508165351528854
16,-0.8897570341578103
17,-11.05920566191378
18,0.5113948729439923
2,1, 1, 1, 0, 7,45.00,60.00,Tuesday
7,-10.6
8,0.0
9,0.0
10,0.0
11,0.0
12,0.0
13,0.0
14,0.052365096815348708
15,-11.48630001669876
16,-0.918878245746555
17,-11.053402480929436
18,0.47813072396983
2,1, 1, 1, 0, 8, 0.00,15.00,Tuesday
7,-10.45
8,0.0
9,0.0
10,0.0
11,0.0
12,0.0
13,0.0
14,0.018764246402785516
15,-11.438526128612596
16,-0.9423667817322894
17,-11.013284284297413
18,0.44441039610290158
2,1, 1, 1, 0, 8,15.00,30.00,Tuesday
7,-10.3
8,57.69019600974546
9,1.0
10,22.819555959623899
11,1.0
12,22.819555959623899
13,57.69019600974546
14,0.08675767985738063
15,-9.765863110918274
16,-0.5365593199041996
17,-10.658340110564609
18,0.42391513936801647
2,1, 1, 1, 0, 8,30.00,45.00,Tuesday
7,-10.15
8,285.3800070249231
9,1.0
10,109.75755355442667
11,1.0
12,109.75755355442667
13,285.3800070249231
14,0.42752715500342627
15,-3.4080185847303419
16,1.2188850363721713
17,-9.367506816915239
18,0.4526535498323397
2,1, 1, 1, 0, 8,45.00,60.00,Tuesday
7,-10.0
8,524.6055123031704
9,1.0
10,195.8764694434918
11,1.0
12,195.8764694434918
13,524.6055123031704
14,0.8505842478100784
15,3.0876592404960365
16,2.854992190758935
17,-8.08370442645662
18,0.5400899824019061
2,1, 1, 1, 0, 9, 0.00,15.00,Tuesday
7,-9.725
8,768.4491717444191
9,1.0
10,278.97248314719988
11,1.0
12,278.97248314719988
13,768.4491717444191
14,1.1703987108635663
15,8.265927280153127
16,4.35049020629549
17,-6.967107622161393
18,0.6785958556463402
2,1, 1, 1, 0, 9,15.00,30.00,Tuesday
7,-9.45
8,1030.6249243631592
9,1.0
10,364.91995730569456
11,1.0
12,364.91995730569456
13,1030.6249243631592
14,1.5391263965259375
15,13.346448286897246
16,5.843602875789543
17,-5.867463366453762
18,0.8551754979972562
2,1, 1, 1, 0, 9,30.00,45.00,Tuesday
7,-9.175
8,1210.4804273274606
9,1.0
10,420.35879993239237
11,1.0
12,420.35879993239237
13,1210.4804273274606
14,1.7782984205898616
15,16.1057531499706
16,6.848057420913733
17,-5.201129279445922
18,1.0508619202894239
2,1, 1, 1, 0, 9,45.00,60.00,Tuesday
7,-8.9
8,1398.6777532574607
9,1.0
10,478.00138373643099
11,1.0
12,478.00138373643099
13,1398.6777532574607
14,2.06283725581798
15,19.101319354661027
16,7.849293459171747
17,-4.504680426585992
18,1.2592683300061265
2,1, 1, 1, 0,10, 0.00,15.00,Tuesday
7,-8.350000000000002
8,1592.0755180216234
9,1.0
10,536.9185644770597
11,1.0
12,536.9185644770597
13,1592.0755180216234
14,2.286430278008754
15,20.221767982352504
16,8.88434315653376
17,-3.696074799108885
18,1.4828874851590668
2,1, 1, 1, 0,10,15.00,30.00,Tuesday
7,-7.800000000000001
8,1792.701648704855
9,1.0
10,598.0969199229219
11,1.0
12,598.0969199229219
13,1792.701648704855
14,2.5340786192053756
15,21.477042310464783
16,9.946042011959776
17,-2.9102682529746177
18,1.7185594021877582
2,1, 1, 1, 0,10,30.00,45.00,Tuesday
7,-7.25
8,1928.119448426844
9,1.0
10,637.6133352894237
11,1.0
12,637.6133352894237
13,1928.119448426844
14,2.714443841596433
15,21.538731699361926
16,10.696667359400351
17,-2.370728800380789
18,1.9527132679201456
2,1, 1, 1, 0,10,45.00,60.00,Tuesday
7,-6.7
8,2061.422449283195
9,1.0
10,676.6412284283772
11,1.0
12,676.6412284283772
13,2061.422449283195
14,2.9093004021082504
15,21.700501258552344
16,11.416119108429598
17,-1.8090200427024002
18,2.177593389456483
2,1, 1, 1, 0,11, 0.00,15.00,Tuesday
7,-6.275
8,2192.1032501103888
9,1.0
10,715.0112779846514
11,1.0
12,715.0112779846514
13,2192.1032501103888
14,3.180789588822715
15,23.797764348873974
16,12.138807414822395
17,-1.0768537395024965
18,2.3966687627942164
2,1, 1, 1, 0,11,15.00,30.00,Tuesday
7,-5.85
8,2319.457313777197
9,1.0
10,752.5077794605232
11,1.0
12,752.5077794605232
13,2319.457313777197
14,3.4370785353194797
15,25.732378951335428
16,12.848492207442974
17,-0.3569827492660238
18,2.6146756478630617
2,1, 1, 1, 0,11,30.00,45.00,Tuesday
7,-5.425
8,2285.6965649767259
9,1.0
10,742.5988714321785
11,1.0
12,742.5988714321785
13,2285.6965649767259
14,3.5745575481796156
15,25.58394735376888
16,12.90559933094562
17,-0.05862825809651895
18,2.817411188638157
2,1, 1, 1, 0,11,45.00,60.00,Tuesday
7,-5.0
8,2235.2264038775226
9,1.0
10,727.8169025450712
11,1.0
12,727.8169025450712
13,2235.2264038775226
14,3.7081745986788277
15,25.354221573058635
16,12.86704276218802
17,0.20724137902948315
18,2.9952895059533475
2,1, 1, 1, 0,12, 0.00,15.00,Tuesday
7,-4.575
8,2148.0872974320998
9,1.0
10,700.3759009170325
11,1.0
12,700.3759009170325
13,2148.0872974320998
14,3.794785584770978
15,24.61117219601583
16,12.646927768280478
17,0.41007901622691636
18,3.144078054577668
2,1, 1, 1, 0,12,15.00,30.00,Tuesday
7,-4.15
8,2080.433669087304
9,1.0
10,681.6705029034473
11,1.0
12,681.6705029034473
13,2080.433669087304
14,3.900222855383895
15,24.280304785166416
16,12.53114118526571
17,0.6890833739538493
18,3.2704788310152477
2,1, 1, 1, 0,12,30.00,45.00,Tuesday
7,-3.7249999999999998
8,1821.205491197466
9,1.0
10,602.01865277251
11,1.0
12,602.01865277251
13,1821.205491197466
14,3.8062639542345004
15,21.2516724468974
16,11.567497969066949
17,0.45848731287264857
18,3.3588641944977439
2,1, 1, 1, 0,12,45.00,60.00,Tuesday
7,-3.3
8,1484.3573874927543
9,1.0
10,493.55004396206007
11,1.0
12,493.55004396206007
13,1484.3573874927543
14,3.6222384568688827
15,17.072592198448949
16,10.100945666382131
17,-0.03595091542877071
18,3.393127210531474
2,1, 1, 1, 0,13, 0.00,15.00,Tuesday
7,-3.0249999999999996
8,1217.3467534298216
9,1.0
10,412.335026418112
11,1.0
12,412.335026418112
13,1217.3467534298216
14,3.500629042997273
15,14.22733447751716
16,8.953162601885538
17,-0.3698288872858484
18,3.3796020561992696
2,1, 1, 1, 0,13,15.00,30.00,Tuesday
7,-2.75
8,884.698883173216
9,1.0
10,305.94037763660148
11,1.0
12,305.94037763660148
13,884.698883173216
14,3.2577602132116065
15,10.05252624236211
16,7.3880893236166689
17,-0.9452873438193592
18,3.32204750361816
2,1, 1, 1, 0,13,30.00,45.00,Tuesday
7,-2.475
8,804.3446509208166
9,1.0
10,281.0763483922329
11,1.0
12,281.0763483922329
13,804.3446509208166
14,3.2333737033124025
15,9.541271996786005
16,6.995506979911454
17,-0.8218773122533207
18,3.2554017535536285
2,1, 1, 1, 0,13,45.00,60.00,Tuesday
7,-2.2
8,725.6418045118138
9,1.0
10,256.7721209415886
11,1.0
12,256.7721209415886
13,725.6418045118138
14,3.1989924831849669
15,8.932778188872954
16,6.650476843403112
17,-0.6763695129078542
18,3.2017786214851049
2,1, 1, 1, 0,14, 0.00,15.00,Tuesday
7,-1.9250000000000003
8,590.7556685446293
9,1.0
10,210.73276284570657
11,1.0
12,210.73276284570657
13,590.7556685446293
14,3.093946313476379
15,7.378873411464649
16,5.943006889598109
17,-0.7775598786907949
18,3.155866803767728
2,1, 1, 1, 0,14,15.00,30.00,Tuesday
7,-1.6500000000000002
8,521.0384688260733
9,1.0
10,189.38488290342594
11,1.0
12,189.38488290342594
13,521.0384688260733
14,3.078272144021142
15,6.979424387831844
16,5.608504525253693
17,-0.6666388545634732
18,3.117030519333741
2,1, 1, 1, 0,14,30.00,45.00,Tuesday
7,-1.375
8,498.15229057485149
9,1.0
10,179.3940297802914
11,1.0
12,179.3940297802914
13,498.15229057485149
14,3.078496668319902
15,7.098344244418262
16,5.472696350578758
17,-0.4449906630609348
18,3.0869850866830528
2,1, 1, 1, 0,14,45.00,60.00,Tuesday
7,-1.1
8,474.5397565900047
9,1.0
10,169.43349014176136
11,1.0
12,169.43349014176136
13,474.5397565900047
14,3.0792714086375767
15,7.195629876238825
16,5.336209717399697
17,-0.22395186531355194
18,3.0647004804569506
2,1, 1, 1, 0,15, 0.00,15.00,Tuesday
7,-1.1
8,498.70949945430098
9,1.0
10,178.15692317953907
11,1.0
12,178.15692317953907
13,498.70949945430098
14,3.127048815159643
15,8.011510076715008
16,5.479122480135629
17,-0.10337318437223075
18,3.0522437722279149
2,1, 1, 1, 0,15,15.00,30.00,Tuesday
7,-1.1
8,468.37919296528846
9,1.0
10,166.40516310952945
11,1.0
12,166.40516310952945
13,468.37919296528846
14,3.093760459794237
15,7.646233029299774
16,5.292883517348855
17,-0.19264066105324674
18,3.043094324943258
2,1, 1, 1, 0,15,30.00,45.00,Tuesday
7,-1.1
8,393.0687015115151
9,1.0
10,140.8967369711617
11,1.0
12,140.8967369711617
13,393.0687015115151
14,3.008555413278659
15,6.437707896028694
16,4.855528490355766
17,-0.46803412514702816
18,3.025506943574089
2,1, 1, 1, 0,15,45.00,60.00,Tuesday
7,-1.1
8,321.7616953401986
9,1.0
10,116.57355796743004
11,1.0
12,116.57355796743004
13,321.7616953401986
14,2.914738987025165
15,5.225077797466278
16,4.414823192514518
17,-0.7485406146877267
18,2.993997653209685
2,1, 1, 1, 0,16, 0.00,15.00,Tuesday
7,-1.1
8,253.93333576075279
9,1.0
10,93.14939272689483
11,1.0
12,93.14939272689483
13,253.93333576075279
14,2.835345690009375
15,4.170711551183004
16,3.9802209097284164
17,-0.964521920809716
18,2.949322436383868
2,1, 1, 1, 0,16,15.00,30.00,Tuesday
7,-1.1
8,156.7583535986634
9,1.0
10,57.94047897402063
11,1.0
12,57.94047897402063
13,156.7583535986634
14,2.6817908118139486
15,2.0400234642464496
16,3.3009718912878727
17,-1.380969468372541
18,2.8881663302083848
2,1, 1, 1, 0,16,30.00,45.00,Tuesday
7,-1.1
8,120.7720561106513
9,1.0
10,45.38251793443488
11,1.0
12,45.38251793443488
13,120.7720561106513
14,2.6238509122095619
15,1.4218733905233856
16,2.9999126087927836
17,-1.5128108696035839
18,2.8189676765131654
2,1, 1, 1, 0,16,45.00,60.00,Tuesday
7,-1.1
8,83.83798514208277
9,1.0
10,32.02625108222755
11,1.0
12,32.02625108222755
13,83.83798514208277
14,2.5357668463615505
15,0.5498833132465928
16,2.6879377290451886
17,-1.674362818656732
18,2.748468796323246
2,1, 1, 1, 0,17, 0.00,15.00,Tuesday
7,-1.1
8,45.806462499356218
9,1.0
10,17.762198626050539
11,1.0
12,17.762198626050539
13,45.806462499356218
14,2.4204968752822659
15,-0.7134339154016819
16,2.3428154624332366
17,-1.9732061480399353
18,2.674174659445862
2,1, 1, 1, 0,17,15.00,30.00,Tuesday
7,-1.1
8,0.0
9,0.0
10,0.0
11,0.0
12,0.0
13,0.0
14,2.259001304678474
15,-2.555757106764647
16,1.934600004718959
17,-2.280815537605349
18,2.5851543967118775
2,1, 1, 1, 0,17,30.00,45.00,Tuesday
7,-1.1
8,0.0
9,0.0
10,0.0
11,0.0
12,0.0
13,0.0
14,2.2149247267450185
15,-2.696986793239485
16,1.841082239584125
17,-2.365372055689022
18,2.4941181467643185
2,1, 1, 1, 0,17,45.00,60.00,Tuesday
7,-1.1
8,0.0
9,0.0
10,0.0
11,0.0
12,0.0
13,0.0
14,2.1561883366992098
15,-2.8975256762698269
16,1.7844461230765774
17,-2.4633706733267788
18,2.4156707462086675
2,1, 1, 1, 0,18, 0.00,15.00,Tuesday
7,-1.25
8,0.0
9,0.0
10,0.0
11,0.0
12,0.0
13,0.0
14,2.1083866872627174
15,-3.044144781898542
16,1.7170759443300199
17,-2.615134124916267
18,2.3536174726330896
2,1, 1, 1, 0,18,15.00,30.00,Tuesday
7,-1.4
8,0.0
9,0.0
10,0.0
11,0.0
12,0.0
13,0.0
14,2.0654890050120726
15,-3.1964612501603586
16,1.6665795770994692
17,-2.7539092562956855
18,2.3048033865009915
2,1, 1, 1, 0,18,30.00,45.00,Tuesday
7,-1.5499999999999999
8,0.0
9,0.0
10,0.0
11,0.0
12,0.0
13,0.0
14,2.028120237196986
15,-3.348124863574808
16,1.6164164830765345
17,-2.897206132385463
18,2.264583837317552
2,1, 1, 1, 0,18,45.00,60.00,Tuesday
7,-1.7
8,0.0
9,0.0
10,0.0
11,0.0
12,0.0
13,0.0
14,1.9924168012335606
15,-3.500019367443898
16,1.5700215741178454
17,-3.0398144898616694
18,2.2292852738792225
2,1, 1, 1, 0,19, 0.00,15.00,Tuesday
7,-1.825
8,0.0
9,0.0
10,0.0
11,0.0
12,0.0
13,0.0
14,1.9844652843539455
15,-3.3378737496261534
16,1.5429632870121282
17,-3.019801538854381
18,2.2003644858796838
2,1, 1, 1, 0,19,15.00,30.00,Tuesday
7,-1.9500000000000002
8,0.0
9,0.0
10,0.0
11,0.0
12,0.0
13,0.0
14,1.9764315423932089
15,-3.258803713585007
16,1.5257256739299692
17,-3.0288460770443637
18,2.1792846036546948
2,1, 1, 1, 0,19,30.00,45.00,Tuesday
7,-2.075
8,0.0
9,0.0
10,0.0
11,0.0
12,0.0
13,0.0
14,1.963438837584225
15,-3.3292051584429456
16,1.5078583490211486
17,-3.115362633103814
18,2.1643485665660004
2,1, 1, 1, 0,19,45.00,60.00,Tuesday
7,-2.2
8,0.0
9,0.0
10,0.0
11,0.0
12,0.0
13,0.0
14,1.953840103209013
15,-3.2961501849988279
16,1.4928052131764958
17,-3.1396169159691
18,2.152553030239979
2,1, 1, 1, 0,20, 0.00,15.00,Tuesday
7,-1.9250000000000003
8,0.0
9,0.0
10,0.0
11,0.0
12,0.0
13,0.0
14,1.9595725770868134
15,-2.9922299046720419
16,1.5211610666118532
17,-2.870956292805431
18,2.143232355656274
2,1, 1, 1, 0,20,15.00,30.00,Tuesday
7,-1.6500000000000002
8,0.0
9,0.0
10,0.0
11,0.0
12,0.0
13,0.0
14,1.96583180875359
15,-2.691587504190184
16,1.5498525737272076
17,-2.5987413449030329
18,2.13641088924768
2,1, 1, 1, 0,20,30.00,45.00,Tuesday
7,-1.375
8,0.0
9,0.0
10,0.0
11,0.0
12,0.0
13,0.0
14,1.9733676443859909
15,-2.3923674924666766
16,1.5796910363898178
17,-2.3264599536266248
18,2.131810804423052
2,1, 1, 1, 0,20,45.00,60.00,Tuesday
7,-1.1
8,0.0
9,0.0
10,0.0
11,0.0
12,0.0
13,0.0
14,1.9823697185321008
15,-2.094526256846584
16,1.6108449466001389
17,-2.054104052338289
18,2.128997632183446
2,1, 1, 1, 0,21, 0.00,15.00,Tuesday
7,-1.25
8,0.0
9,0.0
10,0.0
11,0.0
12,0.0
13,0.0
14,1.9474088139212998
15,-2.38673140022754
16,1.579475023460418
17,-2.278740773714844
18,2.1224172295728715
2,1, 1, 1, 0,21,15.00,30.00,Tuesday
7,-1.4
8,0.0
9,0.0
10,0.0
11,0.0
12,0.0
13,0.0
14,1.9111367173412946
15,-2.6091197448738847
16,1.5381079451693723
17,-2.4462153729901958
18,2.1073220752731709
2,1, 1, 1, 0,21,30.00,45.00,Tuesday
7,-1.5499999999999999
8,0.0
9,0.0
10,0.0
11,0.0
12,0.0
13,0.0
14,1.8620100299784877
15,-2.9678176947470868
16,1.481801258827545
17,-2.6978226634168438
18,2.082006486369213
2,1, 1, 1, 0,21,45.00,60.00,Tuesday
7,-1.7
8,0.0
9,0.0
10,0.0
11,0.0
12,0.0
13,0.0
14,1.807657814845451
15,-3.436124279160465
16,1.4128512694776419
17,-2.9801873676216816
18,2.0478833322156304
2,1, 1, 1, 0,22, 0.00,15.00,Tuesday
7,-1.5499999999999999
8,0.0
9,0.0
10,0.0
11,0.0
12,0.0
13,0.0
14,1.8263234111164269
15,-2.9290467377595865
16,1.4166483913840012
17,-2.6731348349744055
18,2.0181791120614895
2,1, 1, 1, 0,22,15.00,30.00,Tuesday
7,-1.4
8,0.0
9,0.0
10,0.0
11,0.0
12,0.0
13,0.0
14,1.8370478876440722
15,-2.585556780719982
16,1.444325055805109
17,-2.4337891411770444
18,2.0008236001681576
2,1, 1, 1, 0,22,30.00,45.00,Tuesday
7,-1.25
8,0.0
9,0.0
10,0.0
11,0.0
12,0.0
13,0.0
14,1.845112129742967
15,-2.359503140169154
16,1.4659776134769232
17,-2.2565573155250719
18,1.9943329861421396
2,1, 1, 1, 0,22,45.00,60.00,Tuesday
7,-1.1
8,0.0
9,0.0
10,0.0
11,0.0
12,0.0
13,0.0
14,1.8568603416086447
15,-2.0662559391057995
16,1.495663101121977
17,-2.029833768490562
18,1.9939542659316608
2,1, 1, 1, 0,23, 0.00,15.00,Tuesday
7,-1.25
8,0.0
9,0.0
10,0.0
11,0.0
12,0.0
13,0.0
14,1.8230401679961037
15,-2.369951664849535
16,1.4559801889743085
17,-2.3421176071292395
18,1.9905519448818344
2,1, 1, 1, 0,23,15.00,30.00,Tuesday
7,-1.4
8,0.0
9,0.0
10,0.0
11,0.0
12,0.0
13,0.0
14,1.78968595416785
15,-2.674493277959024
16,1.3979493746680305
17,-2.6563620287848836
18,1.9786362887731755
2,1, 1, 1, 0,23,30.00,45.00,Tuesday
7,-1.5499999999999999
8,0.0
9,0.0
10,0.0
11,0.0
12,0.0
13,0.0
14,1.7531986462017706
15,-2.9795436335968996
16,1.3383950151810496
17,-2.9704137073637186
18,1.9582104741909213
2,1, 1, 1, 0,23,45.00,60.00,Tuesday
7,-1.7
8,0.0
9,0.0
10,0.0
11,0.0
12,0.0
13,0.0
14,1.7122694993313406
15,-3.284955954284929
16,1.2756690893671703
17,-3.284515546508601
18,1.9313681610051812
2,1, 1, 1, 0,24, 0.00,15.00,Tuesday
7,-1.7
8,0.0
9,0.0
10,0.0
11,0.0
12,0.0
13,0.0
14,1.6899656868204565
15,-3.338551791632821
16,1.241888557503671
17,-3.3419905444641246
18,1.902959962367747
2,1, 1, 1, 0,24,15.00,30.00,Tuesday
7,-1.7
8,0.0
9,0.0
10,0.0
11,0.0
12,0.0
13,0.0
14,1.6645300628946658
15,-3.393010281366658
16,1.213977682341124
17,-3.4026109185093675
18,1.8760186926865666
2,1, 1, 1, 0,24,30.00,45.00,Tuesday
7,-1.7
8,0.0
9,0.0
10,0.0
11,0.0
12,0.0
13,0.0
14,1.6396440742715648
15,-3.4473332919629509
16,1.185225906979781
17,-3.4634828809604416
18,1.8509557216732438
2,1, 1, 1, 0,24,45.00,60.00,Tuesday
7,-1.7
8,0.0
9,0.0
10,0.0
11,0.0
12,0.0
13,0.0
14,1.6152765427250584
15,-3.5016556981720168
16,1.157020261527009
17,-3.524250224611137
18,1.8271339729009109
End of Data
 Number of Records Written=        1152
