Program Version,EnergyPlus, Version 9.5.0-de239b2e5f, YMD=2023.02.16 18:16
1,5,Environment Title[],Latitude[deg],Longitude[deg],Time Zone[],Elevation[m]
2,8,Day of Simulation[],Month[],Day of Month[],DST Indicator[1=yes 0=no],Hour[],StartMinute[],EndMinute[],DayType
3,5,Cumulative Day of Simulation[],Month[],Day of Month[],DST Indicator[1=yes 0=no],DayType  ! When Daily Report Variables Requested
4,2,Cumulative Days of Simulation[],Month[]  ! When Monthly Report Variables Requested
5,1,Cumulative Days of Simulation[] ! When Run Period Report Variables Requested
6,1,Calendar Year of Simulation[] ! When Annual Report Variables Requested
7,1,Environment,Site Outdoor Air Drybulb Temperature [C] !TimeStep
8,1,ZONE ONE,Zone Windows Total Transmitted Solar Radiation Rate [W] !TimeStep
9,1,ZN001:WALL001,Surface Outside Face Sunlit Fraction [] !TimeStep
10,1,ZN001:WALL001,Surface Outside Face Incident Solar Radiation Rate per Area [W/m2] !TimeStep
11,1,ZN001:WALL001:WIN001,Surface Outside Face Sunlit Fraction [] !TimeStep
12,1,ZN001:WALL001:WIN001,Surface Outside Face Incident Solar Radiation Rate per Area [W/m2] !TimeStep
13,1,ZN001:WALL001:WIN001,Surface Window Transmitted Solar Radiation Rate [W] !TimeStep
14,1,ZN001:WALL001,Surface Inside Face Temperature [C] !TimeStep
15,1,ZN001:WALL001,Surface Outside Face Temperature [C] !TimeStep
16,1,ZN001:WALL001:WIN001,Surface Inside Face Temperature [C] !TimeStep
17,1,ZN001:WALL001:WIN001,Surface Outside Face Temperature [C] !TimeStep
18,1,ZONE ONE,Zone Mean Air Temperature [C] !TimeStep
End of Data Dictionary
1,RUN PERIOD 1,  41.98, -87.92,  -6.00, 201.00
2,1, 1, 1, 0, 1, 0.00,15.00,Tuesday
7,-4.324999999999999
8,0.0
9,0.0
10,0.0
11,0.0
12,0.0
13,0.0
14,4.765486374235282
15,-5.917102094325156
16,3.995877743562744
17,-5.590851459553278
18,5.214911121737508
2,1, 1, 1, 0, 1,15.00,30.00,Tuesday
7,-6.949999999999999
8,0.0
9,0.0
10,0.0
11,0.0
12,0.0
13,0.0
14,4.593972559185807
15,-8.384560519297864
16,3.656357256126057
17,-7.887167370725706
18,5.132206720405502
2,1, 1, 1, 0, 1,30.00,45.00,Tuesday
7,-9.575
8,0.0
9,0.0
10,0.0
11,0.0
12,0.0
13,0.0
14,4.4050867077837039
15,-10.85993973501636
16,3.3126970453824926
17,-10.191050774940436
18,5.021268427530725
2,1, 1, 1, 0, 1,45.00,60.00,Tuesday
7,-12.2
8,0.0
9,0.0
10,0.0
11,0.0
12,0.0
13,0.0
14,4.202367392384621
15,-13.34189844463554
16,2.956130829952258
17,-12.513607001602566
18,4.890274197398524
2,1, 1, 1, 0, 2, 0.00,15.00,Tuesday
7,-12.075
8,0.0
9,0.0
10,0.0
11,0.0
12,0.0
13,0.0
14,4.146889022534127
15,-13.142844538700154
16,2.855587981408007
17,-12.370059401419724
18,4.770726884104743
2,1, 1, 1, 0, 2,15.00,30.00,Tuesday
7,-11.95
8,0.0
9,0.0
10,0.0
11,0.0
12,0.0
13,0.0
14,4.0770945149158239
15,-12.96556355780211
16,2.805672862925917
17,-12.187054625760823
18,4.678369051352768
2,1, 1, 1, 0, 2,30.00,45.00,Tuesday
7,-11.825
8,0.0
9,0.0
10,0.0
11,0.0
12,0.0
13,0.0
14,4.0221932540275209
15,-12.787196269229389
16,2.760529313243751
17,-12.01296029482154
18,4.609397780291801
2,1, 1, 1, 0, 2,45.00,60.00,Tuesday
7,-11.7
8,0.0
9,0.0
10,0.0
11,0.0
12,0.0
13,0.0
14,3.977221905224872
15,-12.608900807028159
16,2.727278102079538
17,-11.837953189507062
18,4.554584595816659
2,1, 1, 1, 0, 3, 0.00,15.00,Tuesday
7,-11.549999999999999
8,0.0
9,0.0
10,0.0
11,0.0
12,0.0
13,0.0
14,3.933292666422015
15,-12.483011435231403
16,2.6986290690473426
17,-11.707828994146098
18,4.505961190354068
2,1, 1, 1, 0, 3,15.00,30.00,Tuesday
7,-11.399999999999999
8,0.0
9,0.0
10,0.0
11,0.0
12,0.0
13,0.0
14,3.8923453635590277
15,-12.358494173148822
16,2.6702758133098998
17,-11.571389625932739
18,4.4594223422202019
2,1, 1, 1, 0, 3,30.00,45.00,Tuesday
7,-11.25
8,0.0
9,0.0
10,0.0
11,0.0
12,0.0
13,0.0
14,3.8521562282790535
15,-12.235508941336155
16,2.6435768637639969
17,-11.43491028802191
18,4.413718196617588
2,1, 1, 1, 0, 3,45.00,60.00,Tuesday
7,-11.1
8,0.0
9,0.0
10,0.0
11,0.0
12,0.0
13,0.0
14,3.8123523041603959
15,-12.114116090760687
16,2.617419128694621
17,-11.29898550521142
18,4.368675435589625
2,1, 1, 1, 0, 4, 0.00,15.00,Tuesday
7,-11.1
8,0.0
9,0.0
10,0.0
11,0.0
12,0.0
13,0.0
14,3.7692403037803747
15,-12.085217334980337
16,2.5756201849951596
17,-11.291791453289875
18,4.323904042333504
2,1, 1, 1, 0, 4,15.00,30.00,Tuesday
7,-11.1
8,0.0
9,0.0
10,0.0
11,0.0
12,0.0
13,0.0
14,3.7265655138348996
15,-12.05742359461358
16,2.534956813322765
17,-11.291028073888697
18,4.27918169112875
2,1, 1, 1, 0, 4,30.00,45.00,Tuesday
7,-11.1
8,0.0
9,0.0
10,0.0
11,0.0
12,0.0
13,0.0
14,3.6839003241159835
15,-12.031182621387004
16,2.494548884092751
17,-11.290637536921679
18,4.2344835061752879
2,1, 1, 1, 0, 4,45.00,60.00,Tuesday
7,-11.1
8,0.0
9,0.0
10,0.0
11,0.0
12,0.0
13,0.0
14,3.641273933076784
15,-12.006367215297136
16,2.4542150942148739
17,-11.290291493789028
18,4.189851927372319
2,1, 1, 1, 0, 5, 0.00,15.00,Tuesday
7,-10.975
8,0.0
9,0.0
10,0.0
11,0.0
12,0.0
13,0.0
14,3.60397884746982
15,-11.884245479243166
16,2.4273560832526757
17,-11.186114914737744
18,4.1460513673870509
2,1, 1, 1, 0, 5,15.00,30.00,Tuesday
7,-10.85
8,0.0
9,0.0
10,0.0
11,0.0
12,0.0
13,0.0
14,3.566805043213348
15,-11.762208889996203
16,2.4012690495864037
17,-11.074905463342248
18,4.103461552701222
2,1, 1, 1, 0, 5,30.00,45.00,Tuesday
7,-10.725
8,0.0
9,0.0
10,0.0
11,0.0
12,0.0
13,0.0
14,3.530443110209026
15,-11.640154767191149
16,2.3756358067316798
17,-10.963177351188392
18,4.061957635745042
2,1, 1, 1, 0, 5,45.00,60.00,Tuesday
7,-10.6
8,0.0
9,0.0
10,0.0
11,0.0
12,0.0
13,0.0
14,3.494777387799519
15,-11.518111478965045
16,2.3507209681242786
17,-10.851355128514343
18,4.021279132658369
2,1, 1, 1, 0, 6, 0.00,15.00,Tuesday
7,-10.6
8,0.0
9,0.0
10,0.0
11,0.0
12,0.0
13,0.0
14,3.452213604252033
15,-11.51895633419
16,2.312539355777062
17,-10.84702115583275
18,3.9801164229631218
2,1, 1, 1, 0, 6,15.00,30.00,Tuesday
7,-10.6
8,0.0
9,0.0
10,0.0
11,0.0
12,0.0
13,0.0
14,3.4102548781227948
15,-11.519738011843979
16,2.273026559700895
17,-10.84992308748076
18,3.937814199535053
2,1, 1, 1, 0, 6,30.00,45.00,Tuesday
7,-10.6
8,0.0
9,0.0
10,0.0
11,0.0
12,0.0
13,0.0
14,3.367815080651265
15,-11.520560339360687
16,2.2335439086580779
17,-10.85328522373743
18,3.8945690090856139
2,1, 1, 1, 0, 6,45.00,60.00,Tuesday
7,-10.6
8,0.0
9,0.0
10,0.0
11,0.0
12,0.0
13,0.0
14,3.325073706366337
15,-11.521381920513904
16,2.1936879236398
17,-10.856713657124829
18,3.8508108662851514
2,1, 1, 1, 0, 7, 0.00,15.00,Tuesday
7,-10.6
8,0.0
9,0.0
10,0.0
11,0.0
12,0.0
13,0.0
14,3.2844236883865816
15,-11.497536285220458
16,2.1542290833358495
17,-10.855374376312739
18,3.8072611887779046
2,1, 1, 1, 0, 7,15.00,30.00,Tuesday
7,-10.6
8,0.0
9,0.0
10,0.0
11,0.0
12,0.0
13,0.0
14,3.2436448122637464
15,-11.4749235749122
16,2.1158912221393395
17,-10.853695680913802
18,3.7642794775656926
2,1, 1, 1, 0, 7,30.00,45.00,Tuesday
7,-10.6
8,0.0
9,0.0
10,0.0
11,0.0
12,0.0
13,0.0
14,3.20317055873974
15,-11.4534598844904
16,2.077686625662807
17,-10.852069477335477
18,3.721821814078953
2,1, 1, 1, 0, 7,45.00,60.00,Tuesday
7,-10.6
8,0.0
9,0.0
10,0.0
11,0.0
12,0.0
13,0.0
14,3.1629970780502036
15,-11.43307760341042
16,2.0397749902216448
17,-10.850490569355543
18,3.679742838328552
2,1, 1, 1, 0, 8, 0.00,15.00,Tuesday
7,-10.45
8,0.0
9,0.0
10,0.0
11,0.0
12,0.0
13,0.0
14,3.121910091706312
15,-11.384117361523034
16,2.007000472258312
17,-10.81204331364978
18,3.637421913040265
2,1, 1, 1, 0, 8,15.00,30.00,Tuesday
7,-10.3
8,115.03919117926972
9,1.0
10,22.819555959623899
11,1.0
12,22.819555959623899
13,115.03919117926972
14,3.1912248675304326
15,-9.710874976036003
16,2.3184637906466607
17,-10.510029471115331
18,3.610616443939633
2,1, 1, 1, 0, 8,30.00,45.00,Tuesday
7,-10.15
8,564.843581773016
9,1.0
10,109.75755355442667
11,1.0
12,109.75755355442667
13,564.843581773016
14,3.5604607196658715
15,-3.3440803981219124
16,3.743972921878708
17,-9.423479412512279
18,3.6420248871565508
2,1, 1, 1, 0, 8,45.00,60.00,Tuesday
7,-10.0
8,1027.107415698465
9,1.0
10,195.8764694434918
11,1.0
12,195.8764694434918
13,1027.107415698465
14,4.009808768659613
15,3.132868215485172
16,5.214823334564244
17,-8.315024410984734
18,3.7402202012465546
2,1, 1, 1, 0, 9, 0.00,15.00,Tuesday
7,-9.725
8,1487.7790350735168
9,1.0
10,278.97248314719988
11,1.0
12,278.97248314719988
13,1487.7790350735168
14,4.413087731231178
15,8.321879816808194
16,6.577565525340333
17,-7.322565840589675
18,3.8910852124594794
2,1, 1, 1, 0, 9,15.00,30.00,Tuesday
7,-9.45
8,1973.3797118442713
9,1.0
10,364.91995730569456
11,1.0
12,364.91995730569456
13,1973.3797118442713
14,4.815000921166563
15,13.39622505342649
16,7.9642498970677029
17,-6.32969628399178
18,4.084610965615975
2,1, 1, 1, 0, 9,30.00,45.00,Tuesday
7,-9.175
8,2294.651274485231
9,1.0
10,420.35879993239237
11,1.0
12,420.35879993239237
13,2294.651274485231
14,5.092371514375798
15,16.154429321682966
16,8.921378504497398
17,-5.709808247638534
18,4.301003016452929
2,1, 1, 1, 0, 9,45.00,60.00,Tuesday
7,-8.9
8,2628.157408555287
9,1.0
10,478.00138373643099
11,1.0
12,478.00138373643099
13,2628.157408555287
14,5.420841051301929
15,19.148976218001278
16,9.871069631463115
17,-5.065885755358522
18,4.5300394179632958
2,1, 1, 1, 0,10, 0.00,15.00,Tuesday
7,-8.350000000000002
8,2968.709586547734
9,1.0
10,536.9185644770597
11,1.0
12,536.9185644770597
13,2968.709586547734
14,5.692232907725345
15,20.26598127215709
16,10.856274872301868
17,-4.277727212006141
18,4.773261395287348
2,1, 1, 1, 0,10,15.00,30.00,Tuesday
7,-7.800000000000001
8,3321.0268194611828
9,1.0
10,598.0969199229219
11,1.0
12,598.0969199229219
13,3321.0268194611828
14,5.989474225705352
15,21.51864060159809
16,11.860660153634968
17,-3.516198055901441
18,5.0373172749535
2,1, 1, 1, 0,10,30.00,45.00,Tuesday
7,-7.25
8,3552.151013375401
9,1.0
10,637.6133352894237
11,1.0
12,637.6133352894237
13,3552.151013375401
14,6.21653164757221
15,21.57803949511584
16,12.592086521742545
17,-2.9760771134157268
18,5.308165982949766
2,1, 1, 1, 0,10,45.00,60.00,Tuesday
7,-6.7
8,3779.8708706745844
9,1.0
10,676.6412284283772
11,1.0
12,676.6412284283772
13,3779.8708706745844
14,6.463832124789162
15,21.73795745643566
16,13.291112790760792
17,-2.4152623907068575
18,5.5746509614321069
2,1, 1, 1, 0,11, 0.00,15.00,Tuesday
7,-6.275
8,4003.447923168032
9,1.0
10,715.0112779846514
11,1.0
12,715.0112779846514
13,4003.447923168032
14,6.786914842617041
15,23.835653373029428
16,13.994531511217474
17,-1.7175093796696502
18,5.838537681388762
2,1, 1, 1, 0,11,15.00,30.00,Tuesday
7,-5.85
8,4221.762249309513
9,1.0
10,752.5077794605232
11,1.0
12,752.5077794605232
13,4221.762249309513
14,7.097581348822189
15,25.77057130237871
16,14.69091068054206
17,-1.0295937273644427
18,6.104090348793726
2,1, 1, 1, 0,11,30.00,45.00,Tuesday
7,-5.425
8,4156.879578089225
9,1.0
10,742.5988714321785
11,1.0
12,742.5988714321785
13,4156.879578089225
14,7.2773766028356
15,25.622290078267825
16,14.801734334532398
17,-0.7214151780376596
18,6.355298451715211
2,1, 1, 1, 0,11,45.00,60.00,Tuesday
7,-5.0
8,4064.169807818047
9,1.0
10,727.8169025450712
11,1.0
12,727.8169025450712
13,4064.169807818047
14,7.452423904546749
15,25.393098625248908
16,14.822498761796055
17,-0.4403639050026982
18,6.580508725616952
2,1, 1, 1, 0,12, 0.00,15.00,Tuesday
7,-4.575
8,3904.7370931113848
9,1.0
10,700.3759009170325
11,1.0
12,700.3759009170325
13,3904.7370931113848
14,7.572564873027511
15,24.650482701809005
16,14.685814475960001
17,-0.20611913237149794
18,6.773497099028276
2,1, 1, 1, 0,12,15.00,30.00,Tuesday
7,-4.15
8,3786.4971101905705
9,1.0
10,681.6705029034473
11,1.0
12,681.6705029034473
13,3786.4971101905705
14,7.714186473538758
15,24.32007868885095
16,14.625467345588504
17,0.09035637696473487
18,6.941489435996887
2,1, 1, 1, 0,12,30.00,45.00,Tuesday
7,-3.7249999999999998
8,3324.2291040318089
9,1.0
10,602.01865277251
11,1.0
12,602.01865277251
13,3324.2291040318089
14,7.629503734433331
15,21.291663829315018
16,13.815918002204512
17,-0.05691580698675125
18,7.064929347468964
2,1, 1, 1, 0,12,45.00,60.00,Tuesday
7,-3.3
8,2714.939666512416
9,1.0
10,493.55004396206007
11,1.0
12,493.55004396206007
13,2714.939666512416
14,7.439190369761722
15,17.113204326106286
16,12.552507598057617
17,-0.44192991088857527
18,7.122909129894637
2,1, 1, 1, 0,13, 0.00,15.00,Tuesday
7,-3.0249999999999996
8,2241.7153986594264
9,1.0
10,412.335026418112
11,1.0
12,412.335026418112
13,2241.7153986594264
14,7.302989300551665
15,14.268969346243227
16,11.530038152325688
17,-0.7023292554508771
18,7.129689906551653
2,1, 1, 1, 0,13,15.00,30.00,Tuesday
7,-2.75
8,1641.850123185226
9,1.0
10,305.94037763660148
11,1.0
12,305.94037763660148
13,1641.850123185226
14,7.016172230315272
15,10.094993548767946
16,10.149335833162695
17,-1.1664341895307189
18,7.091968084249585
2,1, 1, 1, 0,13,30.00,45.00,Tuesday
7,-2.475
8,1498.9510431694724
9,1.0
10,281.0763483922329
11,1.0
12,281.0763483922329
13,1498.9510431694724
14,6.9987903833657969
15,9.584153939245786
16,9.776275371202758
17,-1.0183888468571923
18,7.038607208696057
2,1, 1, 1, 0,13,45.00,60.00,Tuesday
7,-2.2
8,1359.0287484929959
9,1.0
10,256.7721209415886
11,1.0
12,256.7721209415886
13,1359.0287484929959
14,6.962528627037034
15,8.976785864628
16,9.48287985265199
17,-0.8478643936206254
18,6.992675438407298
2,1, 1, 1, 0,14, 0.00,15.00,Tuesday
7,-1.9250000000000003
8,1110.188267973163
9,1.0
10,210.73276284570657
11,1.0
12,210.73276284570657
13,1110.188267973163
14,6.8398092936984649
15,7.428099385486109
16,8.875770570146642
17,-0.8949936182642659
18,6.95017673685658
2,1, 1, 1, 0,14,15.00,30.00,Tuesday
7,-1.6500000000000002
8,986.2055451828589
9,1.0
10,189.38488290342594
11,1.0
12,189.38488290342594
13,986.2055451828589
14,6.818009078547614
15,7.026268085340103
16,8.563798791354714
17,-0.7597540528109903
18,6.911605134503582
2,1, 1, 1, 0,14,30.00,45.00,Tuesday
7,-1.375
8,940.5609907953474
9,1.0
10,179.3940297802914
11,1.0
12,179.3940297802914
13,940.5609907953474
14,6.811335361278457
15,7.147078343970921
16,8.458138591655029
17,-0.5194558119130761
18,6.879952690043268
2,1, 1, 1, 0,14,45.00,60.00,Tuesday
7,-1.1
8,894.3949724036753
9,1.0
10,169.43349014176136
11,1.0
12,169.43349014176136
13,894.3949724036753
14,6.803022609957871
15,7.245943118545192
16,8.347002106759078
17,-0.2794435014108103
18,6.854859730743289
2,1, 1, 1, 0,15, 0.00,15.00,Tuesday
7,-1.1
8,941.4068197394458
9,1.0
10,178.15692317953907
11,1.0
12,178.15692317953907
13,941.4068197394458
14,6.851849213749382
15,8.06254467471929
16,8.466343900818288
17,-0.1726546003663998
18,6.839936724964213
2,1, 1, 1, 0,15,15.00,30.00,Tuesday
7,-1.1
8,884.4258525960432
9,1.0
10,166.40516310952945
11,1.0
12,166.40516310952945
13,884.4258525960432
14,6.8117786994733129
15,7.699427092374472
16,8.316961289745223
17,-0.24201889221365037
18,6.8280934069214329
2,1, 1, 1, 0,15,30.00,45.00,Tuesday
7,-1.1
8,745.7319878230006
9,1.0
10,140.8967369711617
11,1.0
12,140.8967369711617
13,745.7319878230006
14,6.708661638681538
15,6.49101967945861
16,7.924431360429253
17,-0.47912957707376338
18,6.806679238218331
2,1, 1, 1, 0,15,45.00,60.00,Tuesday
7,-1.1
8,613.6766501346383
9,1.0
10,116.57355796743004
11,1.0
12,116.57355796743004
13,613.6766501346383
14,6.612929561234687
15,5.286622914791209
16,7.52268930715195
17,-0.7214099856395251
18,6.768581889455834
2,1, 1, 1, 0,16, 0.00,15.00,Tuesday
7,-1.1
8,487.0488027440361
9,1.0
10,93.14939272689483
11,1.0
12,93.14939272689483
13,487.0488027440361
14,6.518201859628627
15,4.23362911016616
16,7.123900967403074
17,-0.8952883006670049
18,6.714506674720675
2,1, 1, 1, 0,16,15.00,30.00,Tuesday
7,-1.1
8,302.3607792671943
9,1.0
10,57.94047897402063
11,1.0
12,57.94047897402063
13,302.3607792671943
14,6.342935356911393
15,2.108754264203261
16,6.496794984199028
17,-1.235331979594207
18,6.640340920633914
2,1, 1, 1, 0,16,30.00,45.00,Tuesday
7,-1.1
8,234.42837183280779
9,1.0
10,45.38251793443488
11,1.0
12,45.38251793443488
13,234.42837183280779
14,6.273354970397057
15,1.4963598455431857
16,6.219063509778039
17,-1.3330339369222202
18,6.555246398480607
2,1, 1, 1, 0,16,45.00,60.00,Tuesday
7,-1.1
8,163.64653449269407
9,1.0
10,32.02625108222755
11,1.0
12,32.02625108222755
13,163.64653449269407
14,6.170528923149477
15,0.6317620331247009
16,5.9633695558259209
17,-1.4486591665415745
18,6.465694614893603
2,1, 1, 1, 0,17, 0.00,15.00,Tuesday
7,-1.1
8,89.75989496584296
9,1.0
10,17.762198626050539
11,1.0
12,17.762198626050539
13,89.75989496584296
14,6.039335919392224
15,-0.621654549453736
16,5.669531786329458
17,-1.6955354264940752
18,6.3749900101754319
2,1, 1, 1, 0,17,15.00,30.00,Tuesday
7,-1.1
8,0.0
9,0.0
10,0.0
11,0.0
12,0.0
13,0.0
14,5.86134444753275
15,-2.4596604228194889
16,5.316888874314657
17,-1.9576617714764098
18,6.2745798715933349
2,1, 1, 1, 0,17,30.00,45.00,Tuesday
7,-1.1
8,0.0
9,0.0
10,0.0
11,0.0
12,0.0
13,0.0
14,5.808346010698033
15,-2.5966404492298555
16,5.2110733074159729
17,-2.0269881253143469
18,6.177518125469121
2,1, 1, 1, 0,17,45.00,60.00,Tuesday
7,-1.1
8,0.0
9,0.0
10,0.0
11,0.0
12,0.0
13,0.0
14,5.74157802923471
15,-2.7891253424332307
16,5.148521400290747
17,-2.108611713404514
18,6.095910687818713
2,1, 1, 1, 0,18, 0.00,15.00,Tuesday
7,-1.25
8,0.0
9,0.0
10,0.0
11,0.0
12,0.0
13,0.0
14,5.686403102952999
15,-2.9367142870646045
16,5.074422216145763
17,-2.2624657510684758
18,6.030990164555312
2,1, 1, 1, 0,18,15.00,30.00,Tuesday
7,-1.4
8,0.0
9,0.0
10,0.0
11,0.0
12,0.0
13,0.0
14,5.63638190202539
15,-3.08903992956056
16,5.014031719723107
17,-2.40560029990354
18,5.978213100427042
2,1, 1, 1, 0,18,30.00,45.00,Tuesday
7,-1.5499999999999999
8,0.0
9,0.0
10,0.0
11,0.0
12,0.0
13,0.0
14,5.5907338711617069
15,-3.240864754614978
16,4.958135685046955
17,-2.549200785066091
18,5.932504367117193
2,1, 1, 1, 0,18,45.00,60.00,Tuesday
7,-1.7
8,0.0
9,0.0
10,0.0
11,0.0
12,0.0
13,0.0
14,5.54734751892389
15,-3.3928510472902304
16,4.905517019659101
17,-2.6923988386264456
18,5.890447775221561
2,1, 1, 1, 0,19, 0.00,15.00,Tuesday
7,-1.825
8,0.0
9,0.0
10,0.0
11,0.0
12,0.0
13,0.0
14,5.529660114613464
15,-3.2429948748226309
16,4.871712371051899
17,-2.6945301789598945
18,5.8539996035195049
2,1, 1, 1, 0,19,15.00,30.00,Tuesday
7,-1.9500000000000002
8,0.0
9,0.0
10,0.0
11,0.0
12,0.0
13,0.0
14,5.511280997051347
15,-3.1747383474386114
16,4.845567842032779
17,-2.728115347417429
18,5.824864837814725
2,1, 1, 1, 0,19,30.00,45.00,Tuesday
7,-2.075
8,0.0
9,0.0
10,0.0
11,0.0
12,0.0
13,0.0
14,5.488287950572129
15,-3.2480667441588508
16,4.816402210612864
17,-2.82207096181196
18,5.801328789072311
2,1, 1, 1, 0,19,45.00,60.00,Tuesday
7,-2.2
8,0.0
9,0.0
10,0.0
11,0.0
12,0.0
13,0.0
14,5.468554205838159
15,-3.224598271248637
16,4.7927951738862479
17,-2.872838279567702
18,5.7803380512491489
2,1, 1, 1, 0,20, 0.00,15.00,Tuesday
7,-1.9250000000000003
8,0.0
9,0.0
10,0.0
11,0.0
12,0.0
13,0.0
14,5.464610780519472
15,-2.9230747391594305
16,4.80531642166352
17,-2.6072833265538977
18,5.76157567977211
2,1, 1, 1, 0,20,15.00,30.00,Tuesday
7,-1.6500000000000002
8,0.0
9,0.0
10,0.0
11,0.0
12,0.0
13,0.0
14,5.460212848722084
15,-2.624622095583816
16,4.821728238521814
17,-2.3403596333390626
18,5.745252287300743
2,1, 1, 1, 0,20,30.00,45.00,Tuesday
7,-1.375
8,0.0
9,0.0
10,0.0
11,0.0
12,0.0
13,0.0
14,5.45721478111792
15,-2.3274421328217596
16,4.83899681532057
17,-2.0732075536882919
18,5.731096861616953
2,1, 1, 1, 0,20,45.00,60.00,Tuesday
7,-1.1
8,0.0
9,0.0
10,0.0
11,0.0
12,0.0
13,0.0
14,5.455463767978876
15,-2.0315461553099816
16,4.857617260059328
17,-1.8057930894298693
18,5.7186460312227569
2,1, 1, 1, 0,21, 0.00,15.00,Tuesday
7,-1.25
8,0.0
9,0.0
10,0.0
11,0.0
12,0.0
13,0.0
14,5.412041037735894
15,-2.313738537089368
16,4.822760451961074
17,-2.0052458254943419
18,5.701825249783454
2,1, 1, 1, 0,21,15.00,30.00,Tuesday
7,-1.4
8,0.0
9,0.0
10,0.0
11,0.0
12,0.0
13,0.0
14,5.369886475993245
15,-2.5308372068010684
16,4.776096246221357
17,-2.1620988220493588
18,5.676161259435467
2,1, 1, 1, 0,21,30.00,45.00,Tuesday
7,-1.5499999999999999
8,0.0
9,0.0
10,0.0
11,0.0
12,0.0
13,0.0
14,5.314176336936248
15,-2.8765660769994976
16,4.720010913237502
17,-2.3793858879826645
18,5.640475491892689
2,1, 1, 1, 0,21,45.00,60.00,Tuesday
7,-1.7
8,0.0
9,0.0
10,0.0
11,0.0
12,0.0
13,0.0
14,5.252967475682338
15,-3.3300777359844244
16,4.647468051622354
17,-2.6354394086832828
18,5.596595162622971
2,1, 1, 1, 0,22, 0.00,15.00,Tuesday
7,-1.5499999999999999
8,0.0
9,0.0
10,0.0
11,0.0
12,0.0
13,0.0
14,5.261360938772341
15,-2.840568466262469
16,4.635852096132908
17,-2.3654028674635585
18,5.558210771906115
2,1, 1, 1, 0,22,15.00,30.00,Tuesday
7,-1.4
8,0.0
9,0.0
10,0.0
11,0.0
12,0.0
13,0.0
14,5.259047805155582
15,-2.5090453984139398
16,4.64886458799765
17,-2.153483700868037
18,5.532759503437847
2,1, 1, 1, 0,22,30.00,45.00,Tuesday
7,-1.25
8,0.0
9,0.0
10,0.0
11,0.0
12,0.0
13,0.0
14,5.255834424369704
15,-2.288281520523952
16,4.657993853673588
17,-1.994590769649733
18,5.518039894865225
2,1, 1, 1, 0,22,45.00,60.00,Tuesday
7,-1.1
8,0.0
9,0.0
10,0.0
11,0.0
12,0.0
13,0.0
14,5.256607513351927
15,-2.004668235479758
16,4.672462528217125
17,-1.7863809870627279
18,5.508868937896035
2,1, 1, 1, 0,23, 0.00,15.00,Tuesday
7,-1.25
8,0.0
9,0.0
10,0.0
11,0.0
12,0.0
13,0.0
14,5.213529191093283
15,-2.3080027605801587
16,4.627324063482945
17,-2.0999863909972307
18,5.495458408163133
2,1, 1, 1, 0,23,15.00,30.00,Tuesday
7,-1.4
8,0.0
9,0.0
10,0.0
11,0.0
12,0.0
13,0.0
14,5.1731204842388129
15,-2.6125291819561395
16,4.563889492781243
17,-2.4162719518894848
18,5.472722538098244
2,1, 1, 1, 0,23,30.00,45.00,Tuesday
7,-1.5499999999999999
8,0.0
9,0.0
10,0.0
11,0.0
12,0.0
13,0.0
14,5.128504526126824
15,-2.917695852919227
16,4.499245166025844
17,-2.732269735171826
18,5.441457342101147
2,1, 1, 1, 0,23,45.00,60.00,Tuesday
7,-1.7
8,0.0
9,0.0
10,0.0
11,0.0
12,0.0
13,0.0
14,5.080252235750168
15,-3.2232049175494956
16,4.4308471072233719
17,-3.048299555950905
18,5.4043297505628609
2,1, 1, 1, 0,24, 0.00,15.00,Tuesday
7,-1.7
8,0.0
9,0.0
10,0.0
11,0.0
12,0.0
13,0.0
14,5.048725541267191
15,-3.2771334544517054
16,4.389250919857091
17,-3.107098483852724
18,5.36640352385686
2,1, 1, 1, 0,24,15.00,30.00,Tuesday
7,-1.7
8,0.0
9,0.0
10,0.0
11,0.0
12,0.0
13,0.0
14,5.014166706447294
15,-3.331741167346056
16,4.353073870620221
17,-3.168766440243587
18,5.330481907740676
2,1, 1, 1, 0,24,30.00,45.00,Tuesday
7,-1.7
8,0.0
9,0.0
10,0.0
11,0.0
12,0.0
13,0.0
14,4.98046631188421
15,-3.3862118785064525
16,4.316237010761711
17,-3.2306376262578739
18,5.296651904164092
2,1, 1, 1, 0,24,45.00,60.00,Tuesday
7,-1.7
8,0.0
9,0.0
10,0.0
11,0.0
12,0.0
13,0.0
14,4.947415457965303
15,-3.4406864354925039
16,4.280143858809083
17,-3.2923823072693496
18,5.26407773898185
End of Data
 Number of Records Written=        1152
