Program Version,EnergyPlus, Version 9.5.0-de239b2e5f, YMD=2023.02.16 18:16
1,5,Environment Title[],Latitude[deg],Longitude[deg],Time Zone[],Elevation[m]
2,8,Day of Simulation[],Month[],Day of Month[],DST Indicator[1=yes 0=no],Hour[],StartMinute[],EndMinute[],DayType
3,5,Cumulative Day of Simulation[],Month[],Day of Month[],DST Indicator[1=yes 0=no],DayType  ! When Daily Report Variables Requested
4,2,Cumulative Days of Simulation[],Month[]  ! When Monthly Report Variables Requested
5,1,Cumulative Days of Simulation[] ! When Run Period Report Variables Requested
6,1,Calendar Year of Simulation[] ! When Annual Report Variables Requested
7,1,Environment,Site Outdoor Air Drybulb Temperature [C] !TimeStep
8,1,ZONE ONE,Zone Windows Total Transmitted Solar Radiation Rate [W] !TimeStep
9,1,ZN001:WALL001,Surface Outside Face Sunlit Fraction [] !TimeStep
10,1,ZN001:WALL001,Surface Outside Face Incident Solar Radiation Rate per Area [W/m2] !TimeStep
11,1,ZN001:WALL001:WIN001,Surface Outside Face Sunlit Fraction [] !TimeStep
12,1,ZN001:WALL001:WIN001,Surface Outside Face Incident Solar Radiation Rate per Area [W/m2] !TimeStep
13,1,ZN001:WALL001:WIN001,Surface Window Transmitted Solar Radiation Rate [W] !TimeStep
14,1,ZN001:WALL001,Surface Inside Face Temperature [C] !TimeStep
15,1,ZN001:WALL001,Surface Outside Face Temperature [C] !TimeStep
16,1,ZN001:WALL001:WIN001,Surface Inside Face Temperature [C] !TimeStep
17,1,ZN001:WALL001:WIN001,Surface Outside Face Temperature [C] !TimeStep
18,1,ZONE ONE,Zone Mean Air Temperature [C] !TimeStep
End of Data Dictionary
1,RUN PERIOD 1,  41.98, -87.92,  -6.00, 201.00
2,1, 1, 1, 0, 1, 0.00,15.00,Tuesday
7,-4.324999999999999
8,0.0
9,0.0
10,0.0
11,0.0
12,0.0
13,0.0
14,2.601747526205303
15,-5.9565196087847049
16,2.0509359685103165
17,-5.816243529550775
18,2.9909075529314625
2,1, 1, 1, 0, 1,15.00,30.00,Tuesday
7,-6.949999999999999
8,0.0
9,0.0
10,0.0
11,0.0
12,0.0
13,0.0
14,2.433269671499492
15,-8.424303726017469
16,1.7269217808619715
17,-8.126539480020086
18,2.9152097734512596
2,1, 1, 1, 0, 1,30.00,45.00,Tuesday
7,-9.575
8,0.0
9,0.0
10,0.0
11,0.0
12,0.0
13,0.0
14,2.247937204255952
15,-10.900125744891618
16,1.4001889353008892
17,-10.444300156321674
18,2.8109468055004336
2,1, 1, 1, 0, 1,45.00,60.00,Tuesday
7,-12.2
8,0.0
9,0.0
10,0.0
11,0.0
12,0.0
13,0.0
14,2.0489684854152805
15,-13.382504207943962
16,1.0608331209673452
17,-12.780721956300227
18,2.6859956707652299
2,1, 1, 1, 0, 2, 0.00,15.00,Tuesday
7,-12.075
8,0.0
9,0.0
10,0.0
11,0.0
12,0.0
13,0.0
14,2.0001849930203687
15,-13.18376569892066
16,0.9635600040905956
17,-12.636156909976762
18,2.571591183218074
2,1, 1, 1, 0, 2,15.00,30.00,Tuesday
7,-11.95
8,0.0
9,0.0
10,0.0
11,0.0
12,0.0
13,0.0
14,1.9364662464990473
15,-13.006357643281494
16,0.9182893406060657
17,-12.451349587145956
18,2.4838509635275738
2,1, 1, 1, 0, 2,30.00,45.00,Tuesday
7,-11.825
8,0.0
9,0.0
10,0.0
11,0.0
12,0.0
13,0.0
14,1.8873686875778078
15,-12.827850360052328
16,0.8772868519738495
17,-12.27556970741216
18,2.4195516154673295
2,1, 1, 1, 0, 2,45.00,60.00,Tuesday
7,-11.7
8,0.0
9,0.0
10,0.0
11,0.0
12,0.0
13,0.0
14,1.8481981684039113
15,-12.649406002012296
16,0.8480750807709683
17,-12.0989550642538
18,2.369788912998962
2,1, 1, 1, 0, 3, 0.00,15.00,Tuesday
7,-11.549999999999999
8,0.0
9,0.0
10,0.0
11,0.0
12,0.0
13,0.0
14,1.8100159808424526
15,-12.524495629044255
16,0.8231471875643592
17,-11.972029505131787
18,2.3266238791926687
2,1, 1, 1, 0, 3,15.00,30.00,Tuesday
7,-11.399999999999999
8,0.0
9,0.0
10,0.0
11,0.0
12,0.0
13,0.0
14,1.7749578216739135
15,-12.400997709129252
16,0.798701061415727
17,-11.838991623931463
18,2.285832321506906
2,1, 1, 1, 0, 3,30.00,45.00,Tuesday
7,-11.25
8,0.0
9,0.0
10,0.0
11,0.0
12,0.0
13,0.0
14,1.740751676984004
15,-12.279082376855316
16,0.7760302873137448
17,-11.7060860393658
18,2.2460325709016595
2,1, 1, 1, 0, 3,45.00,60.00,Tuesday
7,-11.1
8,0.0
9,0.0
10,0.0
11,0.0
12,0.0
13,0.0
14,1.706968082934924
15,-12.158812740124735
16,0.753962017699223
17,-11.573867609068202
18,2.206965274765614
2,1, 1, 1, 0, 4, 0.00,15.00,Tuesday
7,-11.1
8,0.0
9,0.0
10,0.0
11,0.0
12,0.0
13,0.0
14,1.6699786745677535
15,-12.128519946217514
16,0.7183367089115791
17,-11.561278016689016
18,2.16825071627737
2,1, 1, 1, 0, 4,15.00,30.00,Tuesday
7,-11.1
8,0.0
9,0.0
10,0.0
11,0.0
12,0.0
13,0.0
14,1.633422219127362
15,-12.099389072695466
16,0.6837448249834779
17,-11.554288396579296
18,2.129661255776399
2,1, 1, 1, 0, 4,30.00,45.00,Tuesday
7,-11.1
8,0.0
9,0.0
10,0.0
11,0.0
12,0.0
13,0.0
14,1.5968599656043626
15,-12.071876263877624
16,0.6471256981936335
17,-11.551126998731434
18,2.091175994431115
2,1, 1, 1, 0, 4,45.00,60.00,Tuesday
7,-11.1
8,0.0
9,0.0
10,0.0
11,0.0
12,0.0
13,0.0
14,1.5603951038666296
15,-12.045851889724956
16,0.6131327354783025
17,-11.545550117428889
18,2.0527804048181417
2,1, 1, 1, 0, 5, 0.00,15.00,Tuesday
7,-10.975
8,0.0
9,0.0
10,0.0
11,0.0
12,0.0
13,0.0
14,1.5302965423254036
15,-11.923579481996525
16,0.5930409407098978
17,-11.435322864254602
18,2.0152608477056854
2,1, 1, 1, 0, 5,15.00,30.00,Tuesday
7,-10.85
8,0.0
9,0.0
10,0.0
11,0.0
12,0.0
13,0.0
14,1.49928233312942
15,-11.801438378581958
16,0.5722256672528374
17,-11.322088305541002
18,1.978960852624501
2,1, 1, 1, 0, 5,30.00,45.00,Tuesday
7,-10.725
8,0.0
9,0.0
10,0.0
11,0.0
12,0.0
13,0.0
14,1.4691362744585786
15,-11.679243176705864
16,0.5515410160851388
17,-11.20864334016602
18,1.9436996479194673
2,1, 1, 1, 0, 5,45.00,60.00,Tuesday
7,-10.6
8,0.0
9,0.0
10,0.0
11,0.0
12,0.0
13,0.0
14,1.439647365076463
15,-11.557063045103176
16,0.5315725893927947
17,-11.095132178800668
18,1.9092069554860847
2,1, 1, 1, 0, 6, 0.00,15.00,Tuesday
7,-10.6
8,0.0
9,0.0
10,0.0
11,0.0
12,0.0
13,0.0
14,1.4020762855810596
15,-11.557811781414803
16,0.4967463258567477
17,-11.093218427983459
18,1.8741242307623958
2,1, 1, 1, 0, 6,15.00,30.00,Tuesday
7,-10.6
8,0.0
9,0.0
10,0.0
11,0.0
12,0.0
13,0.0
14,1.366103960581301
15,-11.558448694293084
16,0.46214973268803308
17,-11.094710161751323
18,1.837824577568363
2,1, 1, 1, 0, 6,30.00,45.00,Tuesday
7,-10.6
8,0.0
9,0.0
10,0.0
11,0.0
12,0.0
13,0.0
14,1.329521374148354
15,-11.559164263158716
16,0.42801258458882787
17,-11.097048311312165
18,1.8005609732005943
2,1, 1, 1, 0, 6,45.00,60.00,Tuesday
7,-10.6
8,0.0
9,0.0
10,0.0
11,0.0
12,0.0
13,0.0
14,1.2926318538592972
15,-11.559874868528818
16,0.3934237852396336
17,-11.099685461357922
18,1.7627796916967749
2,1, 1, 1, 0, 7, 0.00,15.00,Tuesday
7,-10.6
8,0.0
9,0.0
10,0.0
11,0.0
12,0.0
13,0.0
14,1.257948565767577
15,-11.534909012310563
16,0.36024076608271118
17,-11.09506772405382
18,1.7252076203333702
2,1, 1, 1, 0, 7,15.00,30.00,Tuesday
7,-10.6
8,0.0
9,0.0
10,0.0
11,0.0
12,0.0
13,0.0
14,1.223112703456083
15,-11.511234226344092
16,0.3278607968409233
17,-11.088795322314468
18,1.6882042535161413
2,1, 1, 1, 0, 7,30.00,45.00,Tuesday
7,-10.6
8,0.0
9,0.0
10,0.0
11,0.0
12,0.0
13,0.0
14,1.188562880893042
15,-11.488759666133932
16,0.29542569437700197
17,-11.082333030434768
18,1.6517237759612398
2,1, 1, 1, 0, 7,45.00,60.00,Tuesday
7,-10.6
8,0.0
9,0.0
10,0.0
11,0.0
12,0.0
13,0.0
14,1.1543014915986834
15,-11.46741481199319
16,0.26325289637702556
17,-11.075971954917407
18,1.6156175550165997
2,1, 1, 1, 0, 8, 0.00,15.00,Tuesday
7,-10.45
8,0.0
9,0.0
10,0.0
11,0.0
12,0.0
13,0.0
14,1.1189958251253039
15,-11.419215203536425
16,0.2369229864016802
17,-11.035489024473066
18,1.5792101854947603
2,1, 1, 1, 0, 8,15.00,30.00,Tuesday
7,-10.3
8,71.56792871975249
9,1.0
10,22.819555959623899
11,1.0
12,22.819555959623899
13,71.56792871975249
14,1.1868073848455119
15,-9.74641668226918
16,0.6527244995008346
17,-10.671827708774004
18,1.5570008135291536
2,1, 1, 1, 0, 8,30.00,45.00,Tuesday
7,-10.15
8,354.0299290602728
9,1.0
10,109.75755355442667
11,1.0
12,109.75755355442667
13,354.0299290602728
14,1.5346898640803326
15,-3.3855113628702027
16,2.446484057077953
17,-9.352872678028803
18,1.5875715497057564
2,1, 1, 1, 0, 8,45.00,60.00,Tuesday
7,-10.0
8,650.8026061160458
9,1.0
10,195.8764694434918
11,1.0
12,195.8764694434918
13,650.8026061160458
14,1.9585858123318077
15,3.100141375736777
16,4.104944893283232
17,-8.048703639004316
18,1.6809456962173022
2,1, 1, 1, 0, 9, 0.00,15.00,Tuesday
7,-9.725
8,953.3043628211269
9,1.0
10,278.97248314719988
11,1.0
12,278.97248314719988
13,953.3043628211269
14,2.3081261235451486
15,8.286517466610995
16,5.616890443300861
17,-6.923590035212101
18,1.827774827898749
2,1, 1, 1, 0, 9,15.00,30.00,Tuesday
7,-9.45
8,1278.5481108613147
9,1.0
10,364.91995730569456
11,1.0
12,364.91995730569456
13,1278.5481108613147
14,2.692229058175039
15,13.363974104338985
16,7.122483181408825
17,-5.820827899496976
18,2.0139964627390296
2,1, 1, 1, 0, 9,30.00,45.00,Tuesday
7,-9.175
8,1501.6689651177185
9,1.0
10,420.35879993239237
11,1.0
12,420.35879993239237
13,1501.6689651177185
14,2.9447787759929189
15,16.12295463463871
16,8.133742033098315
17,-5.1593723976972118
18,2.2199015992461428
2,1, 1, 1, 0, 9,45.00,60.00,Tuesday
7,-8.9
8,1735.1383193393602
9,1.0
10,478.00138373643099
11,1.0
12,478.00138373643099
13,1735.1383193393602
14,3.244972512726647
15,19.118186980660366
16,9.139608040763222
17,-4.4671681270689309
18,2.4382358136764936
2,1, 1, 1, 0,10, 0.00,15.00,Tuesday
7,-8.350000000000002
8,1975.0591100537159
9,1.0
10,536.9185644770597
11,1.0
12,536.9185644770597
13,1975.0591100537159
14,3.4853009503412015
15,20.23737633734194
16,10.179575032331855
17,-3.6637985697083197
18,2.6732469217505239
2,1, 1, 1, 0,10,15.00,30.00,Tuesday
7,-7.800000000000001
8,2223.9470947223846
9,1.0
10,598.0969199229219
11,1.0
12,598.0969199229219
13,2223.9470947223846
14,3.751367753259964
15,21.491771469713485
16,11.248117657938565
17,-2.882448262014975
18,2.922373890274434
2,1, 1, 1, 0,10,30.00,45.00,Tuesday
7,-7.25
8,2391.940481956653
9,1.0
10,637.6133352894237
11,1.0
12,637.6133352894237
13,2391.940481956653
14,3.9488616802856089
15,21.55262824496493
16,12.005859004808486
17,-2.3480011488761649
18,3.171378058698948
2,1, 1, 1, 0,10,45.00,60.00,Tuesday
7,-6.7
8,2557.310342406259
9,1.0
10,676.6412284283772
11,1.0
12,676.6412284283772
13,2557.310342406259
14,4.162257654221476
15,21.713735664895869
16,12.73260293896493
17,-1.7904673148705115
18,3.411791346082723
2,1, 1, 1, 0,11, 0.00,15.00,Tuesday
7,-6.275
8,2719.427216426026
9,1.0
10,715.0112779846514
11,1.0
12,715.0112779846514
13,2719.427216426026
14,4.451872231389973
15,23.811175601866727
16,13.461145425906239
17,-1.0599637249394505
18,3.6469238425308254
2,1, 1, 1, 0,11,15.00,30.00,Tuesday
7,-5.85
8,2877.417086129279
9,1.0
10,752.5077794605232
11,1.0
12,752.5077794605232
13,2877.417086129279
14,4.726992918065659
15,25.74587662511529
16,14.17709843671895
17,-0.341977591713885
18,3.881598606008671
2,1, 1, 1, 0,11,30.00,45.00,Tuesday
7,-5.425
8,2835.5349808371727
9,1.0
10,742.5988714321785
11,1.0
12,742.5988714321785
13,2835.5349808371727
14,4.878382178218585
15,25.59746039386883
16,14.246514412974364
17,-0.04172709888200643
18,4.1008288519270199
2,1, 1, 1, 0,11,45.00,60.00,Tuesday
7,-5.0
8,2772.923910988253
9,1.0
10,727.8169025450712
11,1.0
12,727.8169025450712
13,2772.923910988253
14,5.02538336172461
15,25.367908191909885
16,14.218887408004094
17,0.22657112369529387
18,4.294263824819636
2,1, 1, 1, 0,12, 0.00,15.00,Tuesday
7,-4.575
8,2664.822954671648
9,1.0
10,700.3759009170325
11,1.0
12,700.3759009170325
13,2664.822954671648
14,5.122584747465186
15,24.624983891454567
16,14.006710361702176
17,0.43129327606186509
18,4.457028334105241
2,1, 1, 1, 0,12,15.00,30.00,Tuesday
7,-4.15
8,2580.894828475442
9,1.0
10,681.6705029034473
11,1.0
12,681.6705029034473
13,2580.894828475442
14,5.238662216956751
15,24.294259869709959
16,13.901608232032459
17,0.7151310681468885
18,4.596193881767115
2,1, 1, 1, 0,12,30.00,45.00,Tuesday
7,-3.7249999999999998
8,2259.3077124563117
9,1.0
10,602.01865277251
11,1.0
12,602.01865277251
13,2259.3077124563117
14,5.147297704955995
15,21.265624834910875
16,12.948173742957806
17,0.501593766087467
18,4.694789944732268
2,1, 1, 1, 0,12,45.00,60.00,Tuesday
7,-3.3
8,1841.4287184027517
9,1.0
10,493.55004396206007
11,1.0
12,493.55004396206007
13,1841.4287184027517
14,4.956163941853285
15,17.08665492387835
16,11.481061613324357
17,-0.001438939225863578
18,4.736828472540021
2,1, 1, 1, 0,13, 0.00,15.00,Tuesday
7,-3.0249999999999996
8,1510.1870283450449
9,1.0
10,412.335026418112
11,1.0
12,412.335026418112
13,1510.1870283450449
14,4.8286922816963069
15,14.241554386876415
16,10.33487424515232
17,-0.32796494765216269
18,4.728658259533052
2,1, 1, 1, 0,13,15.00,30.00,Tuesday
7,-2.75
8,1097.5186598189753
9,1.0
10,305.94037763660148
11,1.0
12,305.94037763660148
13,1097.5186598189753
14,4.571752848893292
15,10.066220755434653
16,8.7637683598266
17,-0.8995430602052466
18,4.672838208112628
2,1, 1, 1, 0,13,30.00,45.00,Tuesday
7,-2.475
8,997.8347210574955
9,1.0
10,281.0763483922329
11,1.0
12,281.0763483922329
13,997.8347210574955
14,4.549660637350066
15,9.556752158500816
16,8.362778275428014
17,-0.7720374213809009
18,4.605494342618072
2,1, 1, 1, 0,13,45.00,60.00,Tuesday
7,-2.2
8,900.1994191962868
9,1.0
10,256.7721209415886
11,1.0
12,256.7721209415886
13,900.1994191962868
14,4.512648075760981
15,8.948632870763209
16,8.015298128840869
17,-0.6221392221308406
18,4.550657679054086
2,1, 1, 1, 0,14, 0.00,15.00,Tuesday
7,-1.9250000000000003
8,732.8655907144981
9,1.0
10,210.73276284570657
11,1.0
12,210.73276284570657
13,732.8655907144981
14,4.404103960451982
15,7.399428732199917
16,7.297105810316225
17,-0.7218032993547467
18,4.502689439170174
2,1, 1, 1, 0,14,15.00,30.00,Tuesday
7,-1.6500000000000002
8,646.3774883140063
9,1.0
10,189.38488290342594
11,1.0
12,189.38488290342594
13,646.3774883140063
14,4.382477587139628
15,6.995630998869715
16,6.9546523586734
17,-0.6066749723235034
18,4.461407890569896
2,1, 1, 1, 0,14,30.00,45.00,Tuesday
7,-1.375
8,617.9858986324632
9,1.0
10,179.3940297802914
11,1.0
12,179.3940297802914
13,617.9858986324632
14,4.379585648224451
15,7.115314154145262
16,6.807759463148159
17,-0.3842365488167161
18,4.428924163789379
2,1, 1, 1, 0,14,45.00,60.00,Tuesday
7,-1.1
8,588.6932238625436
9,1.0
10,169.43349014176136
11,1.0
12,169.43349014176136
13,588.6932238625436
14,4.37615185851561
15,7.213085539248663
16,6.659862658806844
17,-0.16215766851712488
18,4.404295225731596
2,1, 1, 1, 0,15, 0.00,15.00,Tuesday
7,-1.1
8,618.6771475466255
9,1.0
10,178.15692317953907
11,1.0
12,178.15692317953907
13,618.6771475466255
14,4.421857898126822
15,8.02892451876424
16,6.802453890279594
17,-0.03889936264715743
18,4.3903416617370099
2,1, 1, 1, 0,15,15.00,30.00,Tuesday
7,-1.1
8,581.0506986351386
9,1.0
10,166.40516310952945
11,1.0
12,166.40516310952945
13,581.0506986351386
14,4.388808693785849
15,7.664875081285727
16,6.612532692539503
17,-0.12824881245734333
18,4.379392588320522
2,1, 1, 1, 0,15,30.00,45.00,Tuesday
7,-1.1
8,487.62380365139259
9,1.0
10,140.8967369711617
11,1.0
12,140.8967369711617
13,487.62380365139259
14,4.2948533702307769
15,6.454087502269417
16,6.169109430860658
17,-0.40368499352854317
18,4.359313277863195
2,1, 1, 1, 0,15,45.00,60.00,Tuesday
7,-1.1
8,399.16345704405486
9,1.0
10,116.57355796743004
11,1.0
12,116.57355796743004
13,399.16345704405486
14,4.205390421741796
15,5.248118584486386
16,5.720936042895914
17,-0.6839834848033206
18,4.32402449955287
2,1, 1, 1, 0,16, 0.00,15.00,Tuesday
7,-1.1
8,315.01856693619978
9,1.0
10,93.14939272689483
11,1.0
12,93.14939272689483
13,315.01856693619978
14,4.120303203224478
15,4.19273194499998
16,5.277600341493667
17,-0.8978698613171332
18,4.27451343350489
2,1, 1, 1, 0,16,15.00,30.00,Tuesday
7,-1.1
8,194.46754305814083
9,1.0
10,57.94047897402063
11,1.0
12,57.94047897402063
13,194.46754305814083
14,3.9606956563578685
15,2.0643243795003425
16,4.5810646365330289
17,-1.316011315644289
18,4.207076098051232
2,1, 1, 1, 0,16,30.00,45.00,Tuesday
7,-1.1
8,149.82451960460407
9,1.0
10,45.38251793443488
11,1.0
12,45.38251793443488
13,149.82451960460407
14,3.897987986817584
15,1.4478814152078144
16,4.266116755036592
17,-1.4470083393682672
18,4.1309521800945119
2,1, 1, 1, 0,16,45.00,60.00,Tuesday
7,-1.1
8,104.00572991011612
9,1.0
10,32.02625108222755
11,1.0
12,32.02625108222755
13,104.00572991011612
14,3.804684473215978
15,0.5785387111849973
16,3.94766050123161
17,-1.6067118805985957
18,4.053441163927983
2,1, 1, 1, 0,17, 0.00,15.00,Tuesday
7,-1.1
8,56.8254897678188
9,1.0
10,17.762198626050539
11,1.0
12,17.762198626050539
13,56.8254897678188
14,3.684467987210563
15,-0.681259700603525
16,3.5962962570283709
17,-1.9078309650182064
18,3.971724271042194
2,1, 1, 1, 0,17,15.00,30.00,Tuesday
7,-1.1
8,0.0
9,0.0
10,0.0
11,0.0
12,0.0
13,0.0
14,3.517594969161975
15,-2.522155382980077
16,3.1762978275976936
17,-2.224209725237756
18,3.87590281336046
2,1, 1, 1, 0,17,30.00,45.00,Tuesday
7,-1.1
8,0.0
9,0.0
10,0.0
11,0.0
12,0.0
13,0.0
14,3.469185315573725
15,-2.6620811578463456
16,3.078416548385917
17,-2.305394173378204
18,3.781076835092608
2,1, 1, 1, 0,17,45.00,60.00,Tuesday
7,-1.1
8,0.0
9,0.0
10,0.0
11,0.0
12,0.0
13,0.0
14,3.4070875015190329
15,-2.8598087920572166
16,3.0191109872167205
17,-2.4015345252049657
18,3.7009820654622689
2,1, 1, 1, 0,18, 0.00,15.00,Tuesday
7,-1.25
8,0.0
9,0.0
10,0.0
11,0.0
12,0.0
13,0.0
14,3.3566049967585984
15,-3.0067484123479115
16,2.949979086154144
17,-2.554828164458627
18,3.6380095821294975
2,1, 1, 1, 0,18,15.00,30.00,Tuesday
7,-1.4
8,0.0
9,0.0
10,0.0
11,0.0
12,0.0
13,0.0
14,3.311379913205468
15,-3.1590522726057839
16,2.8990669994720408
17,-2.6950735416689897
18,3.588125390626729
2,1, 1, 1, 0,18,30.00,45.00,Tuesday
7,-1.5499999999999999
8,0.0
9,0.0
10,0.0
11,0.0
12,0.0
13,0.0
14,3.2717094791958809
15,-3.3107613217137557
16,2.8482824865561726
17,-2.8397479224569794
18,3.5463910954881614
2,1, 1, 1, 0,18,45.00,60.00,Tuesday
7,-1.7
8,0.0
9,0.0
10,0.0
11,0.0
12,0.0
13,0.0
14,3.233561639170223
15,-3.462704334059406
16,2.8012118979326035
17,-2.9837967644972425
18,3.5091478408334129
2,1, 1, 1, 0,19, 0.00,15.00,Tuesday
7,-1.825
8,0.0
9,0.0
10,0.0
11,0.0
12,0.0
13,0.0
14,3.222481988561138
15,-3.304808421819623
16,2.77030500402293
17,-2.9668367563475046
18,3.4779884213198035
2,1, 1, 1, 0,19,15.00,30.00,Tuesday
7,-1.9500000000000002
8,0.0
9,0.0
10,0.0
11,0.0
12,0.0
13,0.0
14,3.210963395951965
15,-3.2294883827152884
16,2.74887262024464
17,-2.979712956921503
18,3.4544527770903445
2,1, 1, 1, 0,19,30.00,45.00,Tuesday
7,-2.075
8,0.0
9,0.0
10,0.0
11,0.0
12,0.0
13,0.0
14,3.194755038452698
15,-3.3008944588369095
16,2.7302203066192307
17,-3.068725648971281
18,3.4368563566285807
2,1, 1, 1, 0,19,45.00,60.00,Tuesday
7,-2.2
8,0.0
9,0.0
10,0.0
11,0.0
12,0.0
13,0.0
14,3.181904928066108
15,-3.2711773573423086
16,2.715184209939366
17,-3.100630619727724
18,3.422188993871727
2,1, 1, 1, 0,20, 0.00,15.00,Tuesday
7,-1.9250000000000003
8,0.0
9,0.0
10,0.0
11,0.0
12,0.0
13,0.0
14,3.1845609215972709
15,-2.9680973100052987
16,2.732968365959323
17,-2.826466874486414
18,3.4098751787474006
2,1, 1, 1, 0,20,15.00,30.00,Tuesday
7,-1.6500000000000002
8,0.0
9,0.0
10,0.0
11,0.0
12,0.0
13,0.0
14,3.1872217407374716
15,-2.66822714706468
16,2.754624169639726
17,-2.552910730204758
18,3.3999813465244514
2,1, 1, 1, 0,20,30.00,45.00,Tuesday
7,-1.375
8,0.0
9,0.0
10,0.0
11,0.0
12,0.0
13,0.0
14,3.1911407173898529
15,-2.3697189375416829
16,2.7772517258169957
17,-2.2793705180959025
18,3.3922281014903818
2,1, 1, 1, 0,20,45.00,60.00,Tuesday
7,-1.1
8,0.0
9,0.0
10,0.0
11,0.0
12,0.0
13,0.0
14,3.1962667810495097
15,-2.0725561003294747
16,2.801151021710268
17,-2.0058220177583054
18,3.3861751360463687
2,1, 1, 1, 0,21, 0.00,15.00,Tuesday
7,-1.25
8,0.0
9,0.0
10,0.0
11,0.0
12,0.0
13,0.0
14,3.1586356945631439
15,-2.3612174732119715
16,2.770768059260263
17,-2.2281325150255499
18,3.3761120117883309
2,1, 1, 1, 0,21,15.00,30.00,Tuesday
7,-1.4
8,0.0
9,0.0
10,0.0
11,0.0
12,0.0
13,0.0
14,3.1202592751374409
15,-2.5817678846013609
16,2.7294209810152099
17,-2.395262810708914
18,3.357374110339158
2,1, 1, 1, 0,21,30.00,45.00,Tuesday
7,-1.5499999999999999
8,0.0
9,0.0
10,0.0
11,0.0
12,0.0
13,0.0
14,3.0691291732925585
15,-2.935920468689588
16,2.673885544989389
17,-2.6437619832198608
18,3.328480502047373
2,1, 1, 1, 0,21,45.00,60.00,Tuesday
7,-1.7
8,0.0
9,0.0
10,0.0
11,0.0
12,0.0
13,0.0
14,3.012632776944836
15,-3.399097511618038
16,2.6063996018759214
17,-2.9238967394447856
18,3.2910276908013516
2,1, 1, 1, 0,22, 0.00,15.00,Tuesday
7,-1.5499999999999999
8,0.0
9,0.0
10,0.0
11,0.0
12,0.0
13,0.0
14,3.0277442008583628
15,-2.8981474120796277
16,2.602011013430001
17,-2.6187424138531698
18,3.2583990520191259
2,1, 1, 1, 0,22,15.00,30.00,Tuesday
7,-1.4
8,0.0
9,0.0
10,0.0
11,0.0
12,0.0
13,0.0
14,3.0341883405848186
15,-2.558825664247811
16,2.6226232598763774
17,-2.382130346709914
18,3.2383895074392536
2,1, 1, 1, 0,22,30.00,45.00,Tuesday
7,-1.25
8,0.0
9,0.0
10,0.0
11,0.0
12,0.0
13,0.0
14,3.038349017896095
15,-2.334627234494597
16,2.6381615392679125
17,-2.20572958762898
18,3.2292419409730099
2,1, 1, 1, 0,22,45.00,60.00,Tuesday
7,-1.1
8,0.0
9,0.0
10,0.0
11,0.0
12,0.0
13,0.0
14,3.0463066248055079
15,-2.044747087435378
16,2.6607650144692345
17,-1.9818909437462935
18,3.226016361230605
2,1, 1, 1, 0,23, 0.00,15.00,Tuesday
7,-1.25
8,0.0
9,0.0
10,0.0
11,0.0
12,0.0
13,0.0
14,3.0095566240185649
15,-2.3482798748254285
16,2.6230148567354947
17,-2.297492810152562
18,3.219334213840618
2,1, 1, 1, 0,23,15.00,30.00,Tuesday
7,-1.4
8,0.0
9,0.0
10,0.0
11,0.0
12,0.0
13,0.0
14,2.974099970222841
15,-2.6528075882224817
16,2.5665345997846886
17,-2.614517428257443
18,3.2038501849457918
2,1, 1, 1, 0,23,30.00,45.00,Tuesday
7,-1.5499999999999999
8,0.0
9,0.0
10,0.0
11,0.0
12,0.0
13,0.0
14,2.934101551704128
15,-2.957895238458655
16,2.508659000161856
17,-2.931305601300437
18,3.1797569424029965
2,1, 1, 1, 0,23,45.00,60.00,Tuesday
7,-1.7
8,0.0
9,0.0
10,0.0
11,0.0
12,0.0
13,0.0
14,2.8915962287810599
15,-3.263297067425215
16,2.446969530463548
17,-3.248139201101367
18,3.1494610553140376
2,1, 1, 1, 0,24, 0.00,15.00,Tuesday
7,-1.7
8,0.0
9,0.0
10,0.0
11,0.0
12,0.0
13,0.0
14,2.86618448455905
15,-3.3170447747605005
16,2.4113277005942566
17,-3.3058826899047064
18,3.117928324746027
2,1, 1, 1, 0,24,15.00,30.00,Tuesday
7,-1.7
8,0.0
9,0.0
10,0.0
11,0.0
12,0.0
13,0.0
14,2.8377510203938027
15,-3.3715480888558657
16,2.3811118686217016
17,-3.3670759922221125
18,3.088080878422174
2,1, 1, 1, 0,24,30.00,45.00,Tuesday
7,-1.7
8,0.0
9,0.0
10,0.0
11,0.0
12,0.0
13,0.0
14,2.809985293756301
15,-3.425918891557521
16,2.3501401510234247
17,-3.4284899581776928
18,3.0601904362409639
2,1, 1, 1, 0,24,45.00,60.00,Tuesday
7,-1.7
8,0.0
9,0.0
10,0.0
11,0.0
12,0.0
13,0.0
14,2.782788709062391
15,-3.4802907588457376
16,2.3197845216263319
17,-3.4897983891457899
18,3.03354007218935
End of Data
 Number of Records Written=        1152
