Program Version,EnergyPlus, Version 9.5.0-de239b2e5f, YMD=2023.02.16 18:16
1,5,Environment Title[],Latitude[deg],Longitude[deg],Time Zone[],Elevation[m]
2,8,Day of Simulation[],Month[],Day of Month[],DST Indicator[1=yes 0=no],Hour[],StartMinute[],EndMinute[],DayType
3,5,Cumulative Day of Simulation[],Month[],Day of Month[],DST Indicator[1=yes 0=no],DayType  ! When Daily Report Variables Requested
4,2,Cumulative Days of Simulation[],Month[]  ! When Monthly Report Variables Requested
5,1,Cumulative Days of Simulation[] ! When Run Period Report Variables Requested
6,1,Calendar Year of Simulation[] ! When Annual Report Variables Requested
7,1,Environment,Site Outdoor Air Drybulb Temperature [C] !TimeStep
8,1,ZONE ONE,Zone Windows Total Transmitted Solar Radiation Rate [W] !TimeStep
9,1,ZN001:WALL001,Surface Outside Face Sunlit Fraction [] !TimeStep
10,1,ZN001:WALL001,Surface Outside Face Incident Solar Radiation Rate per Area [W/m2] !TimeStep
11,1,ZN001:WALL001:WIN001,Surface Outside Face Sunlit Fraction [] !TimeStep
12,1,ZN001:WALL001:WIN001,Surface Outside Face Incident Solar Radiation Rate per Area [W/m2] !TimeStep
13,1,ZN001:WALL001:WIN001,Surface Window Transmitted Solar Radiation Rate [W] !TimeStep
14,1,ZN001:WALL001,Surface Inside Face Temperature [C] !TimeStep
15,1,ZN001:WALL001,Surface Outside Face Temperature [C] !TimeStep
16,1,ZN001:WALL001:WIN001,Surface Inside Face Temperature [C] !TimeStep
17,1,ZN001:WALL001:WIN001,Surface Outside Face Temperature [C] !TimeStep
18,1,ZONE ONE,Zone Mean Air Temperature [C] !TimeStep
End of Data Dictionary
1,RUN PERIOD 1,  41.98, -87.92,  -6.00, 201.00
2,1, 1, 1, 0, 1, 0.00,15.00,Tuesday
7,-4.324999999999999
8,0.0
9,0.0
10,0.0
11,0.0
12,0.0
13,0.0
14,2.526837103455568
15,-5.957888900101735
16,1.9078382403122305
17,-5.7684930685236399
18,2.9130826000178637
2,1, 1, 1, 0, 1,15.00,30.00,Tuesday
7,-6.949999999999999
8,0.0
9,0.0
10,0.0
11,0.0
12,0.0
13,0.0
14,2.357948258807368
15,-8.42568869000625
16,1.5660176024059638
17,-8.065086216152168
18,2.836922979095936
2,1, 1, 1, 0, 1,30.00,45.00,Tuesday
7,-9.575
8,0.0
9,0.0
10,0.0
11,0.0
12,0.0
13,0.0
14,2.1720485639304347
15,-10.901543033501952
16,1.2214907370737934
17,-10.369117724877583
18,2.731931810199726
2,1, 1, 1, 0, 1,45.00,60.00,Tuesday
7,-12.2
8,0.0
9,0.0
10,0.0
11,0.0
12,0.0
13,0.0
14,1.9723938280021823
15,-13.383954168964723
16,0.8645399850631748
17,-12.691985103614968
18,2.606071431888166
2,1, 1, 1, 0, 2, 0.00,15.00,Tuesday
7,-12.075
8,0.0
9,0.0
10,0.0
11,0.0
12,0.0
13,0.0
14,1.9232592016359745
15,-13.185240639638849
16,0.7690103656509564
17,-12.549502902208474
18,2.4909074448660974
2,1, 1, 1, 0, 2,15.00,30.00,Tuesday
7,-11.95
8,0.0
9,0.0
10,0.0
11,0.0
12,0.0
13,0.0
14,1.8591930037412524
15,-13.007837564845535
16,0.725009027402848
17,-12.36613663745294
18,2.402671805330761
2,1, 1, 1, 0, 2,30.00,45.00,Tuesday
7,-11.825
8,0.0
9,0.0
10,0.0
11,0.0
12,0.0
13,0.0
14,1.809877440316041
15,-12.8293294217356
16,0.6854505717564052
17,-12.19178567609464
18,2.338091538136668
2,1, 1, 1, 0, 2,45.00,60.00,Tuesday
7,-11.7
8,0.0
9,0.0
10,0.0
11,0.0
12,0.0
13,0.0
14,1.7705747409313939
15,-12.65088375203182
16,0.6577624738707186
17,-12.01652080164115
18,2.2881743835010339
2,1, 1, 1, 0, 3, 0.00,15.00,Tuesday
7,-11.549999999999999
8,0.0
9,0.0
10,0.0
11,0.0
12,0.0
13,0.0
14,1.7323001203606694
15,-12.526013840050556
16,0.634316861424395
17,-11.88924873128667
18,2.2449176909178196
2,1, 1, 1, 0, 3,15.00,30.00,Tuesday
7,-11.399999999999999
8,0.0
9,0.0
10,0.0
11,0.0
12,0.0
13,0.0
14,1.697173475910837
15,-12.402558367800732
16,0.6113060929696985
17,-11.755796325883012
18,2.2040630345371694
2,1, 1, 1, 0, 3,30.00,45.00,Tuesday
7,-11.25
8,0.0
9,0.0
10,0.0
11,0.0
12,0.0
13,0.0
14,1.662911013247682
15,-12.280687819142607
16,0.590064857901325
17,-11.622423334678388
18,2.1642151411402645
2,1, 1, 1, 0, 3,45.00,60.00,Tuesday
7,-11.1
8,0.0
9,0.0
10,0.0
11,0.0
12,0.0
13,0.0
14,1.629078636441929
15,-12.160465196477297
16,0.5694266637539727
17,-11.489714466696853
18,2.1251103079782025
2,1, 1, 1, 0, 4, 0.00,15.00,Tuesday
7,-11.1
8,0.0
9,0.0
10,0.0
11,0.0
12,0.0
13,0.0
14,1.5920254852328697
15,-12.130126672566865
16,0.5336855597846579
17,-11.47874624988117
18,2.086347692501112
2,1, 1, 1, 0, 4,15.00,30.00,Tuesday
7,-11.1
8,0.0
9,0.0
10,0.0
11,0.0
12,0.0
13,0.0
14,1.5553776011329162
15,-12.10095234161195
16,0.49733610244277318
17,-11.47684525038062
18,2.047732300735622
2,1, 1, 1, 0, 4,30.00,45.00,Tuesday
7,-11.1
8,0.0
9,0.0
10,0.0
11,0.0
12,0.0
13,0.0
14,1.5188017684406259
15,-12.073397920433417
16,0.463337143994238
17,-11.472763521333889
18,2.0091844083959118
2,1, 1, 1, 0, 4,45.00,60.00,Tuesday
7,-11.1
8,0.0
9,0.0
10,0.0
11,0.0
12,0.0
13,0.0
14,1.48225939816219
15,-12.047334077001226
16,0.4291634945003011
17,-11.468472804392377
18,1.9707048389865698
2,1, 1, 1, 0, 5, 0.00,15.00,Tuesday
7,-10.975
8,0.0
9,0.0
10,0.0
11,0.0
12,0.0
13,0.0
14,1.4521031866703292
15,-11.925061801142962
16,0.4099191399799338
17,-11.359651617410237
18,1.9331059723945259
2,1, 1, 1, 0, 5,15.00,30.00,Tuesday
7,-10.85
8,0.0
9,0.0
10,0.0
11,0.0
12,0.0
13,0.0
14,1.4200386623281858
15,-11.80292124023719
16,0.39018763544640935
17,-11.247451556638226
18,1.896621466598114
2,1, 1, 1, 0, 5,30.00,45.00,Tuesday
7,-10.725
8,0.0
9,0.0
10,0.0
11,0.0
12,0.0
13,0.0
14,1.390831091027694
15,-11.680693374511254
16,0.37021819821723059
17,-11.13504313091721
18,1.8612413771888135
2,1, 1, 1, 0, 5,45.00,60.00,Tuesday
7,-10.6
8,0.0
9,0.0
10,0.0
11,0.0
12,0.0
13,0.0
14,1.3611925943781296
15,-11.558551590300576
16,0.35164382137708119
17,-11.02249022741654
18,1.8267326510505
2,1, 1, 1, 0, 6, 0.00,15.00,Tuesday
7,-10.6
8,0.0
9,0.0
10,0.0
11,0.0
12,0.0
13,0.0
14,1.3235824748582952
15,-11.559297481418439
16,0.3173142339331889
17,-11.02071489907513
18,1.7916631547635127
2,1, 1, 1, 0, 6,15.00,30.00,Tuesday
7,-10.6
8,0.0
9,0.0
10,0.0
11,0.0
12,0.0
13,0.0
14,1.2875762672914673
15,-11.559934787549265
16,0.2829133428250543
17,-11.022419199813669
18,1.7553594597657266
2,1, 1, 1, 0, 6,30.00,45.00,Tuesday
7,-10.6
8,0.0
9,0.0
10,0.0
11,0.0
12,0.0
13,0.0
14,1.2509540941706968
15,-11.560651399357854
16,0.24899060152711173
17,-11.024973826004498
18,1.718066384677769
2,1, 1, 1, 0, 6,45.00,60.00,Tuesday
7,-10.6
8,0.0
9,0.0
10,0.0
11,0.0
12,0.0
13,0.0
14,1.2140154064783038
15,-11.561363279338366
16,0.2146223831633165
17,-11.027838066922186
18,1.6802390808372097
2,1, 1, 1, 0, 7, 0.00,15.00,Tuesday
7,-10.6
8,0.0
9,0.0
10,0.0
11,0.0
12,0.0
13,0.0
14,1.1792803352725896
15,-11.536359424842955
16,0.18151462683431419
17,-11.024498423366765
18,1.6426124993767222
2,1, 1, 1, 0, 7,15.00,30.00,Tuesday
7,-10.6
8,0.0
9,0.0
10,0.0
11,0.0
12,0.0
13,0.0
14,1.1443902503461554
15,-11.512648691028414
16,0.14924563271256376
17,-11.019696787910107
18,1.6055510453533298
2,1, 1, 1, 0, 7,30.00,45.00,Tuesday
7,-10.6
8,0.0
9,0.0
10,0.0
11,0.0
12,0.0
13,0.0
14,1.1097852383413925
15,-11.490139846485507
16,0.11694127184921399
17,-11.01471439063107
18,1.5690114360324826
2,1, 1, 1, 0, 7,45.00,60.00,Tuesday
7,-10.6
8,0.0
9,0.0
10,0.0
11,0.0
12,0.0
13,0.0
14,1.0754686269573258
15,-11.468762297185342
16,0.08489863692477684
17,-11.00979420466831
18,1.5328460250415686
2,1, 1, 1, 0, 8, 0.00,15.00,Tuesday
7,-10.45
8,0.0
9,0.0
10,0.0
11,0.0
12,0.0
13,0.0
14,1.0401048886919243
15,-11.420597443799349
16,0.0588791942382727
17,-10.969283703169765
18,1.4963825707740546
2,1, 1, 1, 0, 8,15.00,30.00,Tuesday
7,-10.3
8,71.56792871975249
9,1.0
10,22.819555959623899
11,1.0
12,22.819555959623899
13,71.56792871975249
14,1.1079565869017503
15,-9.747803255517617
16,0.473843036099197
17,-10.603081883085736
18,1.4741601815741079
2,1, 1, 1, 0, 8,30.00,45.00,Tuesday
7,-10.15
8,354.0299290602728
9,1.0
10,109.75755355442667
11,1.0
12,109.75755355442667
13,354.0299290602728
14,1.4563194547585692
15,-3.387064076292237
16,2.2704212451986338
17,-9.273846062168332
18,1.504725622756541
2,1, 1, 1, 0, 8,45.00,60.00,Tuesday
7,-10.0
8,650.8026061160458
9,1.0
10,195.8764694434918
11,1.0
12,195.8764694434918
13,650.8026061160458
14,1.882247885367581
15,3.0996509273392878
16,3.938877379029236
17,-7.966032458738084
18,1.5979286860512408
2,1, 1, 1, 0, 9, 0.00,15.00,Tuesday
7,-9.725
8,953.3043628211269
9,1.0
10,278.97248314719988
11,1.0
12,278.97248314719988
13,953.3043628211269
14,2.2312290152957594
15,8.284930499618288
16,5.456461704511526
17,-6.837305717310471
18,1.7444629731652726
2,1, 1, 1, 0, 9,15.00,30.00,Tuesday
7,-9.45
8,1278.5481108613147
9,1.0
10,364.91995730569456
11,1.0
12,364.91995730569456
13,1278.5481108613147
14,2.614007312672611
15,13.362751726386639
16,6.96724705397412
17,-5.730748986727008
18,1.9303760852002037
2,1, 1, 1, 0, 9,30.00,45.00,Tuesday
7,-9.175
8,1501.6689651177185
9,1.0
10,420.35879993239237
11,1.0
12,420.35879993239237
13,1501.6689651177185
14,2.8662102441861267
15,16.12180701327825
16,7.9798154851771418
17,-5.066903590615254
18,2.136007161658976
2,1, 1, 1, 0, 9,45.00,60.00,Tuesday
7,-8.9
8,1735.1383193393602
9,1.0
10,478.00138373643099
11,1.0
12,478.00138373643099
13,1735.1383193393602
14,3.166407837527131
15,19.11705762074093
16,8.98743803096147
17,-4.372332166501565
18,2.3539965271425058
2,1, 1, 1, 0,10, 0.00,15.00,Tuesday
7,-8.350000000000002
8,1975.0591100537159
9,1.0
10,536.9185644770597
11,1.0
12,536.9185644770597
13,1975.0591100537159
14,3.406612023155736
15,20.2363503941926
16,10.029382936813704
17,-3.572472573600294
18,2.588739742776901
2,1, 1, 1, 0,10,15.00,30.00,Tuesday
7,-7.800000000000001
8,2223.9470947223846
9,1.0
10,598.0969199229219
11,1.0
12,598.0969199229219
13,2223.9470947223846
14,3.6725930567692
15,21.490816573017069
16,11.099751536784084
17,-2.7937033194554035
18,2.8377272271427338
2,1, 1, 1, 0,10,30.00,45.00,Tuesday
7,-7.25
8,2391.940481956653
9,1.0
10,637.6133352894237
11,1.0
12,637.6133352894237
13,2391.940481956653
14,3.8700842536011206
15,21.551743410708697
16,11.858367451198604
17,-2.2623034347730028
18,3.0866810064450167
2,1, 1, 1, 0,10,45.00,60.00,Tuesday
7,-6.7
8,2557.310342406259
9,1.0
10,676.6412284283772
11,1.0
12,676.6412284283772
13,2557.310342406259
14,4.0834941224672109
15,21.71290590829285
16,12.586090155357283
17,-1.7079281881406133
18,3.327082869967956
2,1, 1, 1, 0,11, 0.00,15.00,Tuesday
7,-6.275
8,2719.427216426026
9,1.0
10,715.0112779846514
11,1.0
12,715.0112779846514
13,2719.427216426026
14,4.373146538059853
15,23.810339514752788
16,13.317486386328028
17,-0.9764433950641092
18,3.5622629212797918
2,1, 1, 1, 0,11,15.00,30.00,Tuesday
7,-5.85
8,2877.417086129279
9,1.0
10,752.5077794605232
11,1.0
12,752.5077794605232
13,2877.417086129279
14,4.648324713878299
15,25.745050235245345
16,14.036141356183692
17,-0.2575068312713711
18,3.797053805286031
2,1, 1, 1, 0,11,30.00,45.00,Tuesday
7,-5.425
8,2835.5349808371727
9,1.0
10,742.5988714321785
11,1.0
12,742.5988714321785
13,2835.5349808371727
14,4.799829845386302
15,25.596646347119014
16,14.106715450215348
17,0.041231776266499767
18,4.016424387906922
2,1, 1, 1, 0,11,45.00,60.00,Tuesday
7,-5.0
8,2772.923910988253
9,1.0
10,727.8169025450712
11,1.0
12,727.8169025450712
13,2772.923910988253
14,4.946954045838236
15,25.367093987821776
16,14.080361003944688
17,0.30767709675905055
18,4.209988959705847
2,1, 1, 1, 0,12, 0.00,15.00,Tuesday
7,-4.575
8,2664.822954671648
9,1.0
10,700.3759009170325
11,1.0
12,700.3759009170325
13,2664.822954671648
14,5.044296163726552
15,24.624171479010369
16,13.869515033816925
17,0.5096436009678769
18,4.372858050542854
2,1, 1, 1, 0,12,15.00,30.00,Tuesday
7,-4.15
8,2580.894828475442
9,1.0
10,681.6705029034473
11,1.0
12,681.6705029034473
13,2580.894828475442
14,5.160449460944955
15,24.293444901513078
16,13.766179761118338
17,0.7910904235676526
18,4.512122388435605
2,1, 1, 1, 0,12,30.00,45.00,Tuesday
7,-3.7249999999999998
8,2259.3077124563117
9,1.0
10,602.01865277251
11,1.0
12,602.01865277251
13,2259.3077124563117
14,5.0692843663764999
15,21.26482002499383
16,12.812455699537623
17,0.5717066260539241
18,4.61075479562028
2,1, 1, 1, 0,12,45.00,60.00,Tuesday
7,-3.3
8,1841.4287184027517
9,1.0
10,493.55004396206007
11,1.0
12,493.55004396206007
13,1841.4287184027517
14,4.878729156877253
15,17.085859731382305
16,11.345258983832082
17,0.06134494562149939
18,4.652602214226118
2,1, 1, 1, 0,13, 0.00,15.00,Tuesday
7,-3.0249999999999996
8,1510.1870283450449
9,1.0
10,412.335026418112
11,1.0
12,412.335026418112
13,1510.1870283450449
14,4.750841898803597
15,14.240773951755973
16,10.19983129462696
17,-0.2706543645693955
18,4.644656928600759
2,1, 1, 1, 0,13,15.00,30.00,Tuesday
7,-2.75
8,1097.5186598189753
9,1.0
10,305.94037763660148
11,1.0
12,305.94037763660148
13,1097.5186598189753
14,4.494416796475638
15,10.065572176884267
16,8.627950789366935
17,-0.8494585857611128
18,4.589285411724186
2,1, 1, 1, 0,13,30.00,45.00,Tuesday
7,-2.475
8,997.8347210574955
9,1.0
10,281.0763483922329
11,1.0
12,281.0763483922329
13,997.8347210574955
14,4.4718239883902239
15,9.55577032131708
16,8.229859255282918
17,-0.7245796888475979
18,4.5223764475923249
2,1, 1, 1, 0,13,45.00,60.00,Tuesday
7,-2.2
8,900.1994191962868
9,1.0
10,256.7721209415886
11,1.0
12,256.7721209415886
13,900.1994191962868
14,4.435116905913581
15,8.9476652319696
16,7.884888355217868
17,-0.5772712355738463
18,4.467852667708749
2,1, 1, 1, 0,14, 0.00,15.00,Tuesday
7,-1.9250000000000003
8,732.8655907144981
9,1.0
10,210.73276284570657
11,1.0
12,210.73276284570657
13,732.8655907144981
14,4.326401532860886
15,7.398236429529314
16,7.167782925179381
17,-0.6805062113367058
18,4.420158642172927
2,1, 1, 1, 0,14,15.00,30.00,Tuesday
7,-1.6500000000000002
8,646.3774883140063
9,1.0
10,189.38488290342594
11,1.0
12,189.38488290342594
13,646.3774883140063
14,4.305039036585258
15,6.994651444342666
16,6.828217615304311
17,-0.5668740643784531
18,4.379113126823319
2,1, 1, 1, 0,14,30.00,45.00,Tuesday
7,-1.375
8,617.9858986324632
9,1.0
10,179.3940297802914
11,1.0
12,179.3940297802914
13,617.9858986324632
14,4.302455603572221
15,7.114314410145368
16,6.684073296555596
17,-0.34544285153185685
18,4.3468342880679009
2,1, 1, 1, 0,14,45.00,60.00,Tuesday
7,-1.1
8,588.6932238625436
9,1.0
10,169.43349014176136
11,1.0
12,169.43349014176136
13,588.6932238625436
14,4.29928791308789
15,7.212048858926587
16,6.538911963915666
17,-0.12445244737693884
18,4.32239680860018
2,1, 1, 1, 0,15, 0.00,15.00,Tuesday
7,-1.1
8,618.6771475466255
9,1.0
10,178.15692317953907
11,1.0
12,178.15692317953907
13,618.6771475466255
14,4.345607596279044
15,8.028040231338683
16,6.682592060057971
17,0.0003511848016160002
18,4.308562694009213
2,1, 1, 1, 0,15,15.00,30.00,Tuesday
7,-1.1
8,581.0506986351386
9,1.0
10,166.40516310952945
11,1.0
12,166.40516310952945
13,581.0506986351386
14,4.312374570892432
15,7.663808287678586
16,6.492196847465948
17,-0.08883938701325178
18,4.297767976419966
2,1, 1, 1, 0,15,30.00,45.00,Tuesday
7,-1.1
8,487.62380365139259
9,1.0
10,140.8967369711617
11,1.0
12,140.8967369711617
13,487.62380365139259
14,4.219334007595404
15,6.453751679112912
16,6.048170382603814
17,-0.36477471375997086
18,4.277846890458238
2,1, 1, 1, 0,15,45.00,60.00,Tuesday
7,-1.1
8,399.16345704405486
9,1.0
10,116.57355796743004
11,1.0
12,116.57355796743004
13,399.16345704405486
14,4.1282099803452569
15,5.246616035992026
16,5.5992117945099839
17,-0.6456164431236857
18,4.2428060870485899
2,1, 1, 1, 0,16, 0.00,15.00,Tuesday
7,-1.1
8,315.01856693619978
9,1.0
10,93.14939272689483
11,1.0
12,93.14939272689483
13,315.01856693619978
14,4.0432790872475359
15,4.191404625054037
16,5.155541193800445
17,-0.8596420438744872
18,4.193578649332837
2,1, 1, 1, 0,16,15.00,30.00,Tuesday
7,-1.1
8,194.46754305814083
9,1.0
10,57.94047897402063
11,1.0
12,57.94047897402063
13,194.46754305814083
14,3.8834982357968248
15,2.062835581208972
16,4.456643819937312
17,-1.2784515373013506
18,4.1264706335189509
2,1, 1, 1, 0,16,30.00,45.00,Tuesday
7,-1.1
8,149.82451960460407
9,1.0
10,45.38251793443488
11,1.0
12,45.38251793443488
13,149.82451960460407
14,3.8209347069232226
15,1.4463087207265318
16,4.139851337098435
17,-1.4096908734655358
18,4.050677765161333
2,1, 1, 1, 0,16,45.00,60.00,Tuesday
7,-1.1
8,104.00572991011612
9,1.0
10,32.02625108222755
11,1.0
12,32.02625108222755
13,104.00572991011612
14,3.7277767302787456
15,0.5767947354588928
16,3.824216195600684
17,-1.568994113854842
18,3.9734773479917324
2,1, 1, 1, 0,17, 0.00,15.00,Tuesday
7,-1.1
8,56.8254897678188
9,1.0
10,17.762198626050539
11,1.0
12,17.762198626050539
13,56.8254897678188
14,3.6076443391254817
15,-0.6832224550229562
16,3.474790243166183
17,-1.8691364164454286
18,3.8919956453711088
2,1, 1, 1, 0,17,15.00,30.00,Tuesday
7,-1.1
8,0.0
9,0.0
10,0.0
11,0.0
12,0.0
13,0.0
14,3.440764258678286
15,-2.5242175342903656
16,3.0552338275174408
17,-2.1882006583033446
18,3.7962608643839697
2,1, 1, 1, 0,17,30.00,45.00,Tuesday
7,-1.1
8,0.0
9,0.0
10,0.0
11,0.0
12,0.0
13,0.0
14,3.392450750830132
15,-2.6642203491775287
16,2.9572940585200628
17,-2.267512954431311
18,3.701440155202183
2,1, 1, 1, 0,17,45.00,60.00,Tuesday
7,-1.1
8,0.0
9,0.0
10,0.0
11,0.0
12,0.0
13,0.0
14,3.330399287776395
15,-2.862126563955021
16,2.8978524486262815
17,-2.3613451797206155
18,3.621326423310878
2,1, 1, 1, 0,18, 0.00,15.00,Tuesday
7,-1.25
8,0.0
9,0.0
10,0.0
11,0.0
12,0.0
13,0.0
14,3.2799597650691636
15,-3.0090467515480197
16,2.828101057041181
17,-2.5140036863994625
18,3.5583356929877696
2,1, 1, 1, 0,18,15.00,30.00,Tuesday
7,-1.4
8,0.0
9,0.0
10,0.0
11,0.0
12,0.0
13,0.0
14,3.234762828067221
15,-3.1613540469713419
16,2.7761578369156725
17,-2.6531938002564177
18,3.5084380394424228
2,1, 1, 1, 0,18,30.00,45.00,Tuesday
7,-1.5499999999999999
8,0.0
9,0.0
10,0.0
11,0.0
12,0.0
13,0.0
14,3.1951212914963964
15,-3.313064071114982
16,2.7245096744658214
17,-2.796977869477473
18,3.466695864150883
2,1, 1, 1, 0,18,45.00,60.00,Tuesday
7,-1.7
8,0.0
9,0.0
10,0.0
11,0.0
12,0.0
13,0.0
14,3.156996395064076
15,-3.465008775209592
16,2.6765791552103339
17,-2.9400942699982126
18,3.4294499306872625
2,1, 1, 1, 0,19, 0.00,15.00,Tuesday
7,-1.825
8,0.0
9,0.0
10,0.0
11,0.0
12,0.0
13,0.0
14,3.1459978043225278
15,-3.306852455793413
16,2.645888893346921
17,-2.926980849921847
18,3.3983017133167068
2,1, 1, 1, 0,19,15.00,30.00,Tuesday
7,-1.9500000000000002
8,0.0
9,0.0
10,0.0
11,0.0
12,0.0
13,0.0
14,3.1345645943302418
15,-3.2313036507389576
16,2.6241065878099336
17,-2.9423869630454648
18,3.3747890362755008
2,1, 1, 1, 0,19,30.00,45.00,Tuesday
7,-2.075
8,0.0
9,0.0
10,0.0
11,0.0
12,0.0
13,0.0
14,3.118418654023078
15,-3.3026508163244436
16,2.604679888310784
17,-3.0317281169643026
18,3.357218050620932
2,1, 1, 1, 0,19,45.00,60.00,Tuesday
7,-2.2
8,0.0
9,0.0
10,0.0
11,0.0
12,0.0
13,0.0
14,3.105634483058319
15,-3.2727292267743826
16,2.5892745182077876
17,-3.066329818173813
18,3.3425800090667976
2,1, 1, 1, 0,20, 0.00,15.00,Tuesday
7,-1.9250000000000003
8,0.0
9,0.0
10,0.0
11,0.0
12,0.0
13,0.0
14,3.108384447918021
15,-2.9695991586123777
16,2.609562702535186
17,-2.795020702643342
18,3.3303270732407319
2,1, 1, 1, 0,20,15.00,30.00,Tuesday
7,-1.6500000000000002
8,0.0
9,0.0
10,0.0
11,0.0
12,0.0
13,0.0
14,3.1111777284317476
15,-2.6696825996829176
16,2.633531595544241
17,-2.5237551907360968
18,3.3205348522739088
2,1, 1, 1, 0,20,30.00,45.00,Tuesday
7,-1.375
8,0.0
9,0.0
10,0.0
11,0.0
12,0.0
13,0.0
14,3.115245151755657
15,-2.3711309962869344
16,2.6585084131957048
17,-2.252410791651698
18,3.31291825314936
2,1, 1, 1, 0,20,45.00,60.00,Tuesday
7,-1.1
8,0.0
9,0.0
10,0.0
11,0.0
12,0.0
13,0.0
14,3.120534916833349
15,-2.073926610562694
16,2.6847813850208697
17,-1.9809652880702516
18,3.3070269431937859
2,1, 1, 1, 0,21, 0.00,15.00,Tuesday
7,-1.25
8,0.0
9,0.0
10,0.0
11,0.0
12,0.0
13,0.0
14,3.0829657347854346
15,-2.362809755018366
16,2.6529421257761216
17,-2.198894730440088
18,3.2971148801935508
2,1, 1, 1, 0,21,15.00,30.00,Tuesday
7,-1.4
8,0.0
9,0.0
10,0.0
11,0.0
12,0.0
13,0.0
14,3.044601748219801
15,-2.5834788706892164
16,2.610370010048541
17,-2.3637302341395527
18,3.2784957731226287
2,1, 1, 1, 0,21,30.00,45.00,Tuesday
7,-1.5499999999999999
8,0.0
9,0.0
10,0.0
11,0.0
12,0.0
13,0.0
14,2.993473291390925
15,-2.937920540216707
16,2.5539570215049709
17,-2.6073553232114365
18,3.2496869031221209
2,1, 1, 1, 0,21,45.00,60.00,Tuesday
7,-1.7
8,0.0
9,0.0
10,0.0
11,0.0
12,0.0
13,0.0
14,2.9369675330513416
15,-3.401426130638962
16,2.485091979417575
17,-2.8818682048366215
18,3.212285838542544
2,1, 1, 1, 0,22, 0.00,15.00,Tuesday
7,-1.5499999999999999
8,0.0
9,0.0
10,0.0
11,0.0
12,0.0
13,0.0
14,2.9522224073268186
15,-2.9000912490479839
16,2.48299607702279
17,-2.584144782247847
18,3.1797128522645394
2,1, 1, 1, 0,22,15.00,30.00,Tuesday
7,-1.4
8,0.0
9,0.0
10,0.0
11,0.0
12,0.0
13,0.0
14,2.958845158581656
15,-2.5605094840626188
16,2.505246532379033
17,-2.3520646456788656
18,3.159781638858069
2,1, 1, 1, 0,22,30.00,45.00,Tuesday
7,-1.25
8,0.0
9,0.0
10,0.0
11,0.0
12,0.0
13,0.0
14,2.9631725361833487
15,-2.336195626335761
16,2.5226564527459347
17,-2.1845056772557998
18,3.150758381914722
2,1, 1, 1, 0,22,45.00,60.00,Tuesday
7,-1.1
8,0.0
9,0.0
10,0.0
11,0.0
12,0.0
13,0.0
14,2.9713019172571699
15,-2.0461034072974626
16,2.546529951252694
17,-1.958002969254835
18,3.1476667168595484
2,1, 1, 1, 0,23, 0.00,15.00,Tuesday
7,-1.25
8,0.0
9,0.0
10,0.0
11,0.0
12,0.0
13,0.0
14,2.934594302821132
15,-2.3496487670128918
16,2.506116607059596
17,-2.271403975483338
18,3.141093985517005
2,1, 1, 1, 0,23,15.00,30.00,Tuesday
7,-1.4
8,0.0
9,0.0
10,0.0
11,0.0
12,0.0
13,0.0
14,2.8991332762017758
15,-2.6541797987406348
16,2.447326526074562
17,-2.586824741720534
18,3.125678177103655
2,1, 1, 1, 0,23,30.00,45.00,Tuesday
7,-1.5499999999999999
8,0.0
9,0.0
10,0.0
11,0.0
12,0.0
13,0.0
14,2.8591250708493916
15,-2.9592688482033977
16,2.3871065838098959
17,-2.902020900736261
18,3.1016110140297368
2,1, 1, 1, 0,23,45.00,60.00,Tuesday
7,-1.7
8,0.0
9,0.0
10,0.0
11,0.0
12,0.0
13,0.0
14,2.816604071387839
15,-3.2646722243374128
16,2.323084988192022
17,-3.2172912358296346
18,3.0713069665913599
2,1, 1, 1, 0,24, 0.00,15.00,Tuesday
7,-1.7
8,0.0
9,0.0
10,0.0
11,0.0
12,0.0
13,0.0
14,2.791226808551468
15,-3.3184167043346268
16,2.287129835623773
17,-3.2751392791054174
18,3.0397622953219067
2,1, 1, 1, 0,24,15.00,30.00,Tuesday
7,-1.7
8,0.0
9,0.0
10,0.0
11,0.0
12,0.0
13,0.0
14,2.7628244635606507
15,-3.372919882135697
16,2.2566313212971638
17,-3.33616238866648
18,3.0099157194962875
2,1, 1, 1, 0,24,30.00,45.00,Tuesday
7,-1.7
8,0.0
9,0.0
10,0.0
11,0.0
12,0.0
13,0.0
14,2.73509188832082
15,-3.427290033732335
16,2.225382658915464
17,-3.3974139627401884
18,2.982040940313563
2,1, 1, 1, 0,24,45.00,60.00,Tuesday
7,-1.7
8,0.0
9,0.0
10,0.0
11,0.0
12,0.0
13,0.0
14,2.7079318563497107
15,-3.4816611349053669
16,2.1947585267907927
17,-3.458554337532746
18,2.9554167651110454
End of Data
 Number of Records Written=        1152
