Program Version,EnergyPlus, Version 9.5.0-de239b2e5f, YMD=2023.02.16 18:16
1,5,Environment Title[],Latitude[deg],Longitude[deg],Time Zone[],Elevation[m]
2,8,Day of Simulation[],Month[],Day of Month[],DST Indicator[1=yes 0=no],Hour[],StartMinute[],EndMinute[],DayType
3,5,Cumulative Day of Simulation[],Month[],Day of Month[],DST Indicator[1=yes 0=no],DayType  ! When Daily Report Variables Requested
4,2,Cumulative Days of Simulation[],Month[]  ! When Monthly Report Variables Requested
5,1,Cumulative Days of Simulation[] ! When Run Period Report Variables Requested
6,1,Calendar Year of Simulation[] ! When Annual Report Variables Requested
7,1,Environment,Site Outdoor Air Drybulb Temperature [C] !TimeStep
8,1,ZONE ONE,Zone Windows Total Transmitted Solar Radiation Rate [W] !TimeStep
9,1,ZN001:WALL001,Surface Outside Face Sunlit Fraction [] !TimeStep
10,1,ZN001:WALL001,Surface Outside Face Incident Solar Radiation Rate per Area [W/m2] !TimeStep
11,1,ZN001:WALL001:WIN001,Surface Outside Face Sunlit Fraction [] !TimeStep
12,1,ZN001:WALL001:WIN001,Surface Outside Face Incident Solar Radiation Rate per Area [W/m2] !TimeStep
13,1,ZN001:WALL001:WIN001,Surface Window Transmitted Solar Radiation Rate [W] !TimeStep
14,1,ZN001:WALL001,Surface Inside Face Temperature [C] !TimeStep
15,1,ZN001:WALL001,Surface Outside Face Temperature [C] !TimeStep
16,1,ZN001:WALL001:WIN001,Surface Inside Face Temperature [C] !TimeStep
17,1,ZN001:WALL001:WIN001,Surface Outside Face Temperature [C] !TimeStep
18,1,ZONE ONE,Zone Mean Air Temperature [C] !TimeStep
End of Data Dictionary
1,RUN PERIOD 1,  41.98, -87.92,  -6.00, 201.00
2,1, 1, 1, 0, 1, 0.00,15.00,Tuesday
7,-4.324999999999999
8,0.0
9,0.0
10,0.0
11,0.0
12,0.0
13,0.0
14,4.959470665759122
15,-5.913568481006137
16,4.358440989105361
17,-5.711165018713814
18,5.416307991494204
2,1, 1, 1, 0, 1,15.00,30.00,Tuesday
7,-6.949999999999999
8,0.0
9,0.0
10,0.0
11,0.0
12,0.0
13,0.0
14,4.788819126939756
15,-8.380976813846809
16,4.054034156410012
17,-8.035071639095122
18,5.334518860099962
2,1, 1, 1, 0, 1,30.00,45.00,Tuesday
7,-9.575
8,0.0
9,0.0
10,0.0
11,0.0
12,0.0
13,0.0
14,4.6011002011603019
15,-10.856280632499298
16,3.74554971322641
17,-10.366640416500048
18,5.225022433335736
2,1, 1, 1, 0, 1,45.00,60.00,Tuesday
7,-12.2
8,0.0
9,0.0
10,0.0
11,0.0
12,0.0
13,0.0
14,4.399784559374593
15,-13.33816350666671
16,3.4238236575564544
17,-12.716558380093602
18,5.095824345315477
2,1, 1, 1, 0, 2, 0.00,15.00,Tuesday
7,-12.075
8,0.0
9,0.0
10,0.0
11,0.0
12,0.0
13,0.0
14,4.344982197381593
15,-13.13905233095666
16,3.319714820214415
17,-12.570212938656198
18,4.977764194514417
2,1, 1, 1, 0, 2,15.00,30.00,Tuesday
7,-11.95
8,0.0
9,0.0
10,0.0
11,0.0
12,0.0
13,0.0
14,4.275861210063608
15,-12.961762535767907
16,3.267158363916053
17,-12.384370048608503
18,4.886361456070673
2,1, 1, 1, 0, 2,30.00,45.00,Tuesday
7,-11.825
8,0.0
9,0.0
10,0.0
11,0.0
12,0.0
13,0.0
14,4.221394824610436
15,-12.783398214225148
16,3.2205874301450878
17,-12.217306242705263
18,4.817937780958585
2,1, 1, 1, 0, 2,45.00,60.00,Tuesday
7,-11.7
8,0.0
9,0.0
10,0.0
11,0.0
12,0.0
13,0.0
14,4.176650966571387
15,-12.6051057630114
16,3.1827758367824119
17,-12.02978300179484
18,4.763412116608885
2,1, 1, 1, 0, 3, 0.00,15.00,Tuesday
7,-11.549999999999999
8,0.0
9,0.0
10,0.0
11,0.0
12,0.0
13,0.0
14,4.132890180111476
15,-12.47911333857801
16,3.151013054249688
17,-11.900663162758406
18,4.714942114478542
2,1, 1, 1, 0, 3,15.00,30.00,Tuesday
7,-11.399999999999999
8,0.0
9,0.0
10,0.0
11,0.0
12,0.0
13,0.0
14,4.092055876222077
15,-12.354487762251276
16,3.119651071142073
17,-11.765503167315842
18,4.66849873190364
2,1, 1, 1, 0, 3,30.00,45.00,Tuesday
7,-11.25
8,0.0
9,0.0
10,0.0
11,0.0
12,0.0
13,0.0
14,4.051954938141128
15,-12.231388181508468
16,3.089945489148249
17,-11.630441714825566
18,4.6228630723040029
2,1, 1, 1, 0, 3,45.00,60.00,Tuesday
7,-11.1
8,0.0
9,0.0
10,0.0
11,0.0
12,0.0
13,0.0
14,4.012225008913644
15,-12.109875193349927
16,3.0607763419619689
17,-11.496003443665132
18,4.57787041912762
2,1, 1, 1, 0, 4, 0.00,15.00,Tuesday
7,-11.1
8,0.0
9,0.0
10,0.0
11,0.0
12,0.0
13,0.0
14,3.969218708811057
15,-12.081095295542815
16,3.019207199212701
17,-11.485023424935662
18,4.533174265206144
2,1, 1, 1, 0, 4,15.00,30.00,Tuesday
7,-11.1
8,0.0
9,0.0
10,0.0
11,0.0
12,0.0
13,0.0
14,3.9266522248352975
15,-12.05341461600068
16,2.9784065189137438
17,-11.479715128679857
18,4.488561568457615
2,1, 1, 1, 0, 4,30.00,45.00,Tuesday
7,-11.1
8,0.0
9,0.0
10,0.0
11,0.0
12,0.0
13,0.0
14,3.884109597001653
15,-12.027280884028844
16,2.9378269909077519
17,-11.47488445855356
18,4.443996130708715
2,1, 1, 1, 0, 4,45.00,60.00,Tuesday
7,-11.1
8,0.0
9,0.0
10,0.0
11,0.0
12,0.0
13,0.0
14,3.841614158683598
15,-12.002567504765845
16,2.8973155834562478
17,-11.470272732344938
18,4.399507758391116
2,1, 1, 1, 0, 5, 0.00,15.00,Tuesday
7,-10.975
8,0.0
9,0.0
10,0.0
11,0.0
12,0.0
13,0.0
14,3.8044099180195816
15,-11.880446805393218
16,2.867903757805607
17,-11.363327305888788
18,4.355823625752227
2,1, 1, 1, 0, 5,15.00,30.00,Tuesday
7,-10.85
8,0.0
9,0.0
10,0.0
11,0.0
12,0.0
13,0.0
14,3.7673181458138558
15,-11.758410905173225
16,2.8395485194439518
17,-11.249897186723104
18,4.313314580590798
2,1, 1, 1, 0, 5,30.00,45.00,Tuesday
7,-10.725
8,0.0
9,0.0
10,0.0
11,0.0
12,0.0
13,0.0
14,3.731019427027259
15,-11.636357878860315
16,2.811659126144832
17,-11.136032551920835
18,4.271864176731205
2,1, 1, 1, 0, 5,45.00,60.00,Tuesday
7,-10.6
8,0.0
9,0.0
10,0.0
11,0.0
12,0.0
13,0.0
14,3.695402343796754
15,-11.5143158212401
16,2.784477131190215
17,-11.022098334323914
18,4.2312218977333109
2,1, 1, 1, 0, 6, 0.00,15.00,Tuesday
7,-10.6
8,0.0
9,0.0
10,0.0
11,0.0
12,0.0
13,0.0
14,3.652928195662108
15,-11.515157499073663
16,2.7461182112106146
17,-11.017620916650572
18,4.190110414439572
2,1, 1, 1, 0, 6,15.00,30.00,Tuesday
7,-10.6
8,0.0
9,0.0
10,0.0
11,0.0
12,0.0
13,0.0
14,3.6110567491504836
15,-11.515937234963996
16,2.7061288783638135
17,-11.020043919572914
18,4.147882350458739
2,1, 1, 1, 0, 6,30.00,45.00,Tuesday
7,-10.6
8,0.0
9,0.0
10,0.0
11,0.0
12,0.0
13,0.0
14,3.5687118784595435
15,-11.516757402430516
16,2.666152585731254
17,-11.022874514496039
18,4.104727023929631
2,1, 1, 1, 0, 6,45.00,60.00,Tuesday
7,-10.6
8,0.0
9,0.0
10,0.0
11,0.0
12,0.0
13,0.0
14,3.526069657828156
15,-11.517576868181827
16,2.6258082863427036
17,-11.02575918075081
18,4.061065702147399
2,1, 1, 1, 0, 7, 0.00,15.00,Tuesday
7,-10.6
8,0.0
9,0.0
10,0.0
11,0.0
12,0.0
13,0.0
14,3.485511428417129
15,-11.493829561220862
16,2.5860990443649145
17,-11.020759422903382
18,4.017617268415054
2,1, 1, 1, 0, 7,15.00,30.00,Tuesday
7,-10.6
8,0.0
9,0.0
10,0.0
11,0.0
12,0.0
13,0.0
14,3.4448259351582246
15,-11.471309899293797
16,2.547506885709197
17,-11.015410627513575
18,3.9747393619554418
2,1, 1, 1, 0, 7,30.00,45.00,Tuesday
7,-10.6
8,0.0
9,0.0
10,0.0
11,0.0
12,0.0
13,0.0
14,3.404445719278166
15,-11.449934833092716
16,2.5090367655121215
17,-11.010245304966645
18,3.93238631558579
2,1, 1, 1, 0, 7,45.00,60.00,Tuesday
7,-10.6
8,0.0
9,0.0
10,0.0
11,0.0
12,0.0
13,0.0
14,3.364365740631732
15,-11.429636996047197
16,2.4708496057756976
17,-11.005264295723692
18,3.8904114814976435
2,1, 1, 1, 0, 8, 0.00,15.00,Tuesday
7,-10.45
8,0.0
9,0.0
10,0.0
11,0.0
12,0.0
13,0.0
14,3.323366068729567
15,-11.380588522817965
16,2.4365396143115847
17,-10.967625718178056
18,3.8481776462401164
2,1, 1, 1, 0, 8,15.00,30.00,Tuesday
7,-10.3
8,115.03919117926972
9,1.0
10,22.819555959623899
11,1.0
12,22.819555959623899
13,115.03919117926972
14,3.392505784078019
15,-9.707333063595869
16,2.7481782208237179
17,-10.67055399694243
18,3.8213848783002084
2,1, 1, 1, 0, 8,30.00,45.00,Tuesday
7,-10.15
8,564.843581773016
9,1.0
10,109.75755355442667
11,1.0
12,109.75755355442667
13,564.843581773016
14,3.7608100102773878
15,-3.340133371044099
16,4.184725026499336
17,-9.601367257848154
18,3.852458353003355
2,1, 1, 1, 0, 8,45.00,60.00,Tuesday
7,-10.0
8,1027.107415698465
9,1.0
10,195.8764694434918
11,1.0
12,195.8764694434918
13,1027.107415698465
14,4.206259948496435
15,3.1351958708464817
16,5.624318536851092
17,-8.501316660973885
18,3.9507496357667994
2,1, 1, 1, 0, 9, 0.00,15.00,Tuesday
7,-9.725
8,1487.7790350735168
9,1.0
10,278.97248314719988
11,1.0
12,278.97248314719988
13,1487.7790350735168
14,4.607859684636512
15,8.325707541571712
16,6.973096048769662
17,-7.515477559313922
18,4.103540007263285
2,1, 1, 1, 0, 9,15.00,30.00,Tuesday
7,-9.45
8,1973.3797118442713
9,1.0
10,364.91995730569456
11,1.0
12,364.91995730569456
13,1973.3797118442713
14,5.01735638047538
15,13.399291503207847
16,8.346037957410772
17,-6.529515621314204
18,4.297664022659466
2,1, 1, 1, 0, 9,30.00,45.00,Tuesday
7,-9.175
8,2294.651274485231
9,1.0
10,420.35879993239237
11,1.0
12,420.35879993239237
13,2294.651274485231
14,5.292386055353935
15,16.157368535041568
16,9.303917970676935
17,-5.913392878364789
18,4.514182515465654
2,1, 1, 1, 0, 9,45.00,60.00,Tuesday
7,-8.9
8,2628.157408555287
9,1.0
10,478.00138373643099
11,1.0
12,478.00138373643099
13,2628.157408555287
14,5.621289629270761
15,19.15185319974522
16,10.24757680721143
17,-5.273695046279954
18,4.743275686680733
2,1, 1, 1, 0,10, 0.00,15.00,Tuesday
7,-8.350000000000002
8,2968.709586547734
9,1.0
10,536.9185644770597
11,1.0
12,536.9185644770597
13,2968.709586547734
14,5.892566828717049
15,20.26858052187806
16,11.227792048069773
17,-4.475993851584462
18,4.986893877658731
2,1, 1, 1, 0,10,15.00,30.00,Tuesday
7,-7.800000000000001
8,3321.0268194611828
9,1.0
10,598.0969199229219
11,1.0
12,598.0969199229219
13,3321.0268194611828
14,6.189906947386657
15,21.521067732758636
16,12.227466223231773
17,-3.7071556504407114
18,5.2512064268571729
2,1, 1, 1, 0,10,30.00,45.00,Tuesday
7,-7.25
8,3552.151013375401
9,1.0
10,637.6133352894237
11,1.0
12,637.6133352894237
13,3552.151013375401
14,6.4169582851057
15,21.58028985524814
16,12.955560867751217
17,-3.1462260749917165
18,5.522080765377563
2,1, 1, 1, 0,10,45.00,60.00,Tuesday
7,-6.7
8,3779.8708706745844
9,1.0
10,676.6412284283772
11,1.0
12,676.6412284283772
13,3779.8708706745844
14,6.664186518509789
15,21.740066670169897
16,13.652920021139608
17,-2.590751052200517
18,5.788466667976163
2,1, 1, 1, 0,11, 0.00,15.00,Tuesday
7,-6.275
8,4003.447923168032
9,1.0
10,715.0112779846514
11,1.0
12,715.0112779846514
13,4003.447923168032
14,6.987102244780426
15,23.837773400291679
16,14.350670940637884
17,-1.8948335682593439
18,6.052134364521471
2,1, 1, 1, 0,11,15.00,30.00,Tuesday
7,-5.85
8,4221.762249309513
9,1.0
10,752.5077794605232
11,1.0
12,752.5077794605232
13,4221.762249309513
14,7.297585243095192
15,25.77266790710023
16,15.041653171336975
17,-1.2087274730882883
18,6.317358560422826
2,1, 1, 1, 0,11,30.00,45.00,Tuesday
7,-5.425
8,4156.879578089225
9,1.0
10,742.5988714321785
11,1.0
12,742.5988714321785
13,4156.879578089225
14,7.477132181832878
15,25.6243597005646
16,15.15057030387095
17,-0.8977832337583322
18,6.568213046599545
2,1, 1, 1, 0,11,45.00,60.00,Tuesday
7,-5.0
8,4064.169807818047
9,1.0
10,727.8169025450712
11,1.0
12,727.8169025450712
13,4064.169807818047
14,7.651899536933153
15,25.395169155513338
16,15.169243953681758
17,-0.6133112036632156
18,6.793097485776637
2,1, 1, 1, 0,12, 0.00,15.00,Tuesday
7,-4.575
8,3904.7370931113848
9,1.0
10,700.3759009170325
11,1.0
12,700.3759009170325
13,3904.7370931113848
14,7.771765052424472
15,24.65255034110265
16,15.030428311129072
17,-0.3739618316881206
18,6.985807390622355
2,1, 1, 1, 0,12,15.00,30.00,Tuesday
7,-4.15
8,3786.4971101905705
9,1.0
10,681.6705029034473
11,1.0
12,681.6705029034473
13,3786.4971101905705
14,7.913175532867097
15,24.322152405043139
16,14.966963996687526
17,-0.07295502682973165
18,7.153532393034973
2,1, 1, 1, 0,12,30.00,45.00,Tuesday
7,-3.7249999999999998
8,3324.2291040318089
9,1.0
10,602.01865277251
11,1.0
12,602.01865277251
13,3324.2291040318089
14,7.828188727468262
15,21.2937199317058
16,14.159297194042097
17,-0.20942588498814986
18,7.276792249256181
2,1, 1, 1, 0,12,45.00,60.00,Tuesday
7,-3.3
8,2714.939666512416
9,1.0
10,493.55004396206007
11,1.0
12,493.55004396206007
13,2714.939666512416
14,7.637167794478911
15,17.115254930384464
16,12.897190322258723
17,-0.5807313280712947
18,7.334890944341098
2,1, 1, 1, 0,13, 0.00,15.00,Tuesday
7,-3.0249999999999996
8,2241.7153986594264
9,1.0
10,412.335026418112
11,1.0
12,412.335026418112
13,2241.7153986594264
14,7.50036745306011
15,14.271031974963224
16,11.874664829434323
17,-0.8310127235331493
18,7.341883392912628
2,1, 1, 1, 0,13,15.00,30.00,Tuesday
7,-2.75
8,1641.850123185226
9,1.0
10,305.94037763660148
11,1.0
12,305.94037763660148
13,1641.850123185226
14,7.212043952733074
15,10.096876840491849
16,10.496503735477973
17,-1.2819353740157454
18,7.304624410339611
2,1, 1, 1, 0,13,30.00,45.00,Tuesday
7,-2.475
8,1498.9510431694724
9,1.0
10,281.0763483922329
11,1.0
12,281.0763483922329
13,1498.9510431694724
14,7.197027415142585
15,9.586637813113543
16,10.118034529938769
17,-1.1288764689334699
18,7.250948285459843
2,1, 1, 1, 0,13,45.00,60.00,Tuesday
7,-2.2
8,1359.0287484929959
9,1.0
10,256.7721209415886
11,1.0
12,256.7721209415886
13,1359.0287484929959
14,7.160320406647522
15,8.97933188198236
16,9.82168384482975
17,-0.9536326509372088
18,7.204463605046892
2,1, 1, 1, 0,14, 0.00,15.00,Tuesday
7,-1.9250000000000003
8,1110.188267973163
9,1.0
10,210.73276284570657
11,1.0
12,210.73276284570657
13,1110.188267973163
14,7.038565314546184
15,7.431201940094578
16,9.210386237065905
17,-0.9936484915202755
18,7.161262912369322
2,1, 1, 1, 0,14,15.00,30.00,Tuesday
7,-1.6500000000000002
8,986.2055451828589
9,1.0
10,189.38488290342594
11,1.0
12,189.38488290342594
13,986.2055451828589
14,7.015899618474028
15,7.02876157798342
16,8.896653722247664
17,-0.8571354560182272
18,7.1220229713213289
2,1, 1, 1, 0,14,30.00,45.00,Tuesday
7,-1.375
8,940.5609907953474
9,1.0
10,179.3940297802914
11,1.0
12,179.3940297802914
13,940.5609907953474
14,7.008703305977132
15,7.149648553182052
16,8.785613403435037
17,-0.6156776523380358
18,7.0898225395604579
2,1, 1, 1, 0,14,45.00,60.00,Tuesday
7,-1.1
8,894.3949724036753
9,1.0
10,169.43349014176136
11,1.0
12,169.43349014176136
13,894.3949724036753
14,6.999917625750657
15,7.248608378221753
16,8.66915791629907
17,-0.37428543191856536
18,7.0642516072105459
2,1, 1, 1, 0,15, 0.00,15.00,Tuesday
7,-1.1
8,941.4068197394458
9,1.0
10,178.15692317953907
11,1.0
12,178.15692317953907
13,941.4068197394458
14,7.047666629334501
15,8.065101318847953
16,8.785933328159672
17,-0.27101306506051517
18,7.049045836899612
2,1, 1, 1, 0,15,15.00,30.00,Tuesday
7,-1.1
8,884.4258525960432
9,1.0
10,166.40516310952945
11,1.0
12,166.40516310952945
13,884.4258525960432
14,7.005629251192455
15,7.700819399282217
16,8.637890929038634
17,-0.34171022555108268
18,7.03692920688024
2,1, 1, 1, 0,15,30.00,45.00,Tuesday
7,-1.1
8,745.7319878230006
9,1.0
10,140.8967369711617
11,1.0
12,140.8967369711617
13,745.7319878230006
14,6.906328412593685
15,6.49547036272093
16,8.247443970778932
17,-0.5788256439852262
18,7.01508263937359
2,1, 1, 1, 0,15,45.00,60.00,Tuesday
7,-1.1
8,613.6766501346383
9,1.0
10,116.57355796743004
11,1.0
12,116.57355796743004
13,613.6766501346383
14,6.810345002547019
15,5.289746082854926
16,7.84875445349337
17,-0.8210509893651192
18,6.976300199962435
2,1, 1, 1, 0,16, 0.00,15.00,Tuesday
7,-1.1
8,487.0488027440361
9,1.0
10,93.14939272689483
11,1.0
12,93.14939272689483
13,487.0488027440361
14,6.7156975583749098
15,4.237061962578334
16,7.452854907998642
17,-0.996215232724694
18,6.9214327715114829
2,1, 1, 1, 0,16,15.00,30.00,Tuesday
7,-1.1
8,302.3607792671943
9,1.0
10,57.94047897402063
11,1.0
12,57.94047897402063
13,302.3607792671943
14,6.540739610760538
15,2.1125176195556976
16,6.8295031488971749
17,-1.337262230473243
18,6.846276713022638
2,1, 1, 1, 0,16,30.00,45.00,Tuesday
7,-1.1
8,234.42837183280779
9,1.0
10,45.38251793443488
11,1.0
12,45.38251793443488
13,234.42837183280779
14,6.47056856391475
15,1.5003826008925319
16,6.543738791053784
17,-1.4364590212803706
18,6.760369199560794
2,1, 1, 1, 0,16,45.00,60.00,Tuesday
7,-1.1
8,163.64653449269407
9,1.0
10,32.02625108222755
11,1.0
12,32.02625108222755
13,163.64653449269407
14,6.36749167954148
15,0.6362132429884552
16,6.285649288939339
17,-1.5553628777607856
18,6.670252720986781
2,1, 1, 1, 0,17, 0.00,15.00,Tuesday
7,-1.1
8,89.75989496584296
9,1.0
10,17.762198626050539
11,1.0
12,17.762198626050539
13,89.75989496584296
14,6.236218708759012
15,-0.616643073013043
16,5.990494388103457
17,-1.8059330280361224
18,6.57932146396395
2,1, 1, 1, 0,17,15.00,30.00,Tuesday
7,-1.1
8,0.0
9,0.0
10,0.0
11,0.0
12,0.0
13,0.0
14,6.058385230299675
15,-2.454371390610763
16,5.637014276037576
17,-2.0624985570605078
18,6.478889928782958
2,1, 1, 1, 0,17,30.00,45.00,Tuesday
7,-1.1
8,0.0
9,0.0
10,0.0
11,0.0
12,0.0
13,0.0
14,6.005235674367201
15,-2.5911321430003468
16,5.530847102625103
17,-2.13755402939978
18,6.3818628391867799
2,1, 1, 1, 0,17,45.00,60.00,Tuesday
7,-1.1
8,0.0
9,0.0
10,0.0
11,0.0
12,0.0
13,0.0
14,5.9383896302188499
15,-2.783153255236623
16,5.468123907428435
17,-2.225764985438218
18,6.30027542523787
2,1, 1, 1, 0,18, 0.00,15.00,Tuesday
7,-1.25
8,0.0
9,0.0
10,0.0
11,0.0
12,0.0
13,0.0
14,5.8831208149154678
15,-2.930792842589269
16,5.395243472802349
17,-2.3807838327307424
18,6.235353747935648
2,1, 1, 1, 0,18,15.00,30.00,Tuesday
7,-1.4
8,0.0
9,0.0
10,0.0
11,0.0
12,0.0
13,0.0
14,5.8330223667522589
15,-3.0831098730537778
16,5.336393972429505
17,-2.5256623959619448
18,6.182561648373039
2,1, 1, 1, 0,18,30.00,45.00,Tuesday
7,-1.5499999999999999
8,0.0
9,0.0
10,0.0
11,0.0
12,0.0
13,0.0
14,5.787304305339034
15,-3.2349323885736909
16,5.282070793225216
17,-2.671082536373774
18,6.136829696898653
2,1, 1, 1, 0,18,45.00,60.00,Tuesday
7,-1.7
8,0.0
9,0.0
10,0.0
11,0.0
12,0.0
13,0.0
14,5.743932107345437
15,-3.3869152399476807
16,5.235867670283255
17,-2.8124268776921328
18,6.09475502153141
2,1, 1, 1, 0,19, 0.00,15.00,Tuesday
7,-1.825
8,0.0
9,0.0
10,0.0
11,0.0
12,0.0
13,0.0
14,5.725989863921372
15,-3.2377336848783715
16,5.197851407538849
17,-2.8080958438553127
18,6.058274021011265
2,1, 1, 1, 0,19,15.00,30.00,Tuesday
7,-1.9500000000000002
8,0.0
9,0.0
10,0.0
11,0.0
12,0.0
13,0.0
14,5.707433261953417
15,-3.1700721652974734
16,5.172635521542361
17,-2.833257524208193
18,6.02908534960563
2,1, 1, 1, 0,19,30.00,45.00,Tuesday
7,-2.075
8,0.0
9,0.0
10,0.0
11,0.0
12,0.0
13,0.0
14,5.6843100362471319
15,-3.2435543424530985
16,5.145005028448168
17,-2.926338878341312
18,6.005485944586222
2,1, 1, 1, 0,19,45.00,60.00,Tuesday
7,-2.2
8,0.0
9,0.0
10,0.0
11,0.0
12,0.0
13,0.0
14,5.664436425217757
15,-3.220612264563474
16,5.12250204237381
17,-2.969393298378236
18,5.984424706368543
2,1, 1, 1, 0,20, 0.00,15.00,Tuesday
7,-1.9250000000000003
8,0.0
9,0.0
10,0.0
11,0.0
12,0.0
13,0.0
14,5.660259143135422
15,-2.919214233545554
16,5.130046437593592
17,-2.6972078797267615
18,5.965522984129984
2,1, 1, 1, 0,20,15.00,30.00,Tuesday
7,-1.6500000000000002
8,0.0
9,0.0
10,0.0
11,0.0
12,0.0
13,0.0
14,5.655580760930193
15,-2.620876901097446
16,5.141909683027848
17,-2.4250313608831677
18,5.948973080299131
2,1, 1, 1, 0,20,30.00,45.00,Tuesday
7,-1.375
8,0.0
9,0.0
10,0.0
11,0.0
12,0.0
13,0.0
14,5.6522681201303979
15,-2.323806504023648
16,5.154561700000215
17,-2.152845646349533
18,5.934519410294707
2,1, 1, 1, 0,20,45.00,60.00,Tuesday
7,-1.1
8,0.0
9,0.0
10,0.0
11,0.0
12,0.0
13,0.0
14,5.650170731517959
15,-2.0280151910899266
16,5.168515436783423
17,-1.8806111691312709
18,5.9217213826905159
2,1, 1, 1, 0,21, 0.00,15.00,Tuesday
7,-1.25
8,0.0
9,0.0
10,0.0
11,0.0
12,0.0
13,0.0
14,5.6066564984140199
15,-2.309643818983553
16,5.135832256603408
17,-2.091418767069854
18,5.90458360297482
2,1, 1, 1, 0,21,15.00,30.00,Tuesday
7,-1.4
8,0.0
9,0.0
10,0.0
11,0.0
12,0.0
13,0.0
14,5.564440925451813
15,-2.526438460874057
16,5.091235889573056
17,-2.254052638950725
18,5.878676485875488
2,1, 1, 1, 0,21,30.00,45.00,Tuesday
7,-1.5499999999999999
8,0.0
9,0.0
10,0.0
11,0.0
12,0.0
13,0.0
14,5.508681298960054
15,-2.87141758248234
16,5.034287440623984
17,-2.4886691615299698
18,5.842836583723048
2,1, 1, 1, 0,21,45.00,60.00,Tuesday
7,-1.7
8,0.0
9,0.0
10,0.0
11,0.0
12,0.0
13,0.0
14,5.447521731890168
15,-3.3240684048141064
16,4.965636354259232
17,-2.755009114683105
18,5.798841321113678
2,1, 1, 1, 0,22, 0.00,15.00,Tuesday
7,-1.5499999999999999
8,0.0
9,0.0
10,0.0
11,0.0
12,0.0
13,0.0
14,5.455594404839619
15,-2.8355548098851734
16,4.9501711404358279
17,-2.466144918248233
18,5.7603237229004649
2,1, 1, 1, 0,22,15.00,30.00,Tuesday
7,-1.4
8,0.0
9,0.0
10,0.0
11,0.0
12,0.0
13,0.0
14,5.452870213661357
15,-2.504703507016342
16,4.960434675339002
17,-2.242081171467646
18,5.734688479127711
2,1, 1, 1, 0,22,30.00,45.00,Tuesday
7,-1.25
8,0.0
9,0.0
10,0.0
11,0.0
12,0.0
13,0.0
14,5.449320752105268
15,-2.2842358398299917
16,4.966514036864055
17,-2.077079702822175
18,5.719728279573706
2,1, 1, 1, 0,22,45.00,60.00,Tuesday
7,-1.1
8,0.0
9,0.0
10,0.0
11,0.0
12,0.0
13,0.0
14,5.449751357329413
15,-2.0011666319211005
16,4.978410075234478
17,-1.8587573102394118
18,5.710276162826759
2,1, 1, 1, 0,23, 0.00,15.00,Tuesday
7,-1.25
8,0.0
9,0.0
10,0.0
11,0.0
12,0.0
13,0.0
14,5.406626642065714
15,-2.3044780833397908
16,4.938275944565476
17,-2.1766947456428626
18,5.6966274471709259
2,1, 1, 1, 0,23,15.00,30.00,Tuesday
7,-1.4
8,0.0
9,0.0
10,0.0
11,0.0
12,0.0
13,0.0
14,5.366194191534549
15,-2.609000114191536
16,4.879275529165739
17,-2.4960898092657546
18,5.673743131070675
2,1, 1, 1, 0,23,30.00,45.00,Tuesday
7,-1.5499999999999999
8,0.0
9,0.0
10,0.0
11,0.0
12,0.0
13,0.0
14,5.321571206995566
15,-2.9141624323725847
16,4.8191357870133519
17,-2.8151825795480365
18,5.642419633417863
2,1, 1, 1, 0,23,45.00,60.00,Tuesday
7,-1.7
8,0.0
9,0.0
10,0.0
11,0.0
12,0.0
13,0.0
14,5.273339456283524
15,-3.219666769196192
16,4.755233735748675
17,-3.1342550541386915
18,5.605302805546143
2,1, 1, 1, 0,24, 0.00,15.00,Tuesday
7,-1.7
8,0.0
9,0.0
10,0.0
11,0.0
12,0.0
13,0.0
14,5.241733187333789
15,-3.273601999607617
16,4.714233438415135
17,-3.1927006786356175
18,5.567390698911976
2,1, 1, 1, 0,24,15.00,30.00,Tuesday
7,-1.7
8,0.0
9,0.0
10,0.0
11,0.0
12,0.0
13,0.0
14,5.207102725882496
15,-3.328210010854407
16,4.678523979776344
17,-3.2546138591866908
18,5.53145264216663
2,1, 1, 1, 0,24,30.00,45.00,Tuesday
7,-1.7
8,0.0
9,0.0
10,0.0
11,0.0
12,0.0
13,0.0
14,5.173324045748837
15,-3.382682223322558
16,4.642140547336794
17,-3.3167192500711737
18,5.497573590856356
2,1, 1, 1, 0,24,45.00,60.00,Tuesday
7,-1.7
8,0.0
9,0.0
10,0.0
11,0.0
12,0.0
13,0.0
14,5.140186267402057
15,-3.4371585028041098
16,4.606481768908793
17,-3.378712038496815
18,5.464928360452501
End of Data
 Number of Records Written=        1152
