Program Version,EnergyPlus, Version 9.5.0-de239b2e5f, YMD=2023.02.16 18:16
1,5,Environment Title[],Latitude[deg],Longitude[deg],Time Zone[],Elevation[m]
2,8,Day of Simulation[],Month[],Day of Month[],DST Indicator[1=yes 0=no],Hour[],StartMinute[],EndMinute[],DayType
3,5,Cumulative Day of Simulation[],Month[],Day of Month[],DST Indicator[1=yes 0=no],DayType  ! When Daily Report Variables Requested
4,2,Cumulative Days of Simulation[],Month[]  ! When Monthly Report Variables Requested
5,1,Cumulative Days of Simulation[] ! When Run Period Report Variables Requested
6,1,Calendar Year of Simulation[] ! When Annual Report Variables Requested
7,1,Environment,Site Outdoor Air Drybulb Temperature [C] !TimeStep
8,1,ZONE ONE,Zone Windows Total Transmitted Solar Radiation Rate [W] !TimeStep
9,1,ZN001:WALL001,Surface Outside Face Sunlit Fraction [] !TimeStep
10,1,ZN001:WALL001,Surface Outside Face Incident Solar Radiation Rate per Area [W/m2] !TimeStep
11,1,ZN001:WALL001:WIN001,Surface Outside Face Sunlit Fraction [] !TimeStep
12,1,ZN001:WALL001:WIN001,Surface Outside Face Incident Solar Radiation Rate per Area [W/m2] !TimeStep
13,1,ZN001:WALL001:WIN001,Surface Window Transmitted Solar Radiation Rate [W] !TimeStep
14,1,ZN001:WALL001,Surface Inside Face Temperature [C] !TimeStep
15,1,ZN001:WALL001,Surface Outside Face Temperature [C] !TimeStep
16,1,ZN001:WALL001:WIN001,Surface Inside Face Temperature [C] !TimeStep
17,1,ZN001:WALL001:WIN001,Surface Outside Face Temperature [C] !TimeStep
18,1,ZONE ONE,Zone Mean Air Temperature [C] !TimeStep
End of Data Dictionary
1,RUN PERIOD 1,  41.98, -87.92,  -6.00, 201.00
2,1, 1, 1, 0, 1, 0.00,15.00,Tuesday
7,-4.324999999999999
8,0.0
9,0.0
10,0.0
11,0.0
12,0.0
13,0.0
14,4.909808496386317
15,-5.914472985328503
16,4.2656226909863339
17,-5.68037867964847
18,5.364757933904108
2,1, 1, 1, 0, 1,15.00,30.00,Tuesday
7,-6.949999999999999
8,0.0
9,0.0
10,0.0
11,0.0
12,0.0
13,0.0
14,4.738938915186343
15,-8.381894197055467
16,3.952345623270503
17,-7.997300386979589
18,5.282739584795062
2,1, 1, 1, 0, 1,30.00,45.00,Tuesday
7,-9.575
8,0.0
9,0.0
10,0.0
11,0.0
12,0.0
13,0.0
14,4.550925427022636
15,-10.857217196825668
16,3.6349720525339537
17,-10.321862573321085
18,5.172881612386979
2,1, 1, 1, 0, 1,45.00,60.00,Tuesday
7,-12.2
8,0.0
9,0.0
10,0.0
11,0.0
12,0.0
13,0.0
14,4.349255696872304
15,-13.339119356322359
16,3.304438228598883
17,-12.664851843864313
18,5.043232800148299
2,1, 1, 1, 0, 2, 0.00,15.00,Tuesday
7,-12.075
8,0.0
9,0.0
10,0.0
11,0.0
12,0.0
13,0.0
14,4.294283295726253
15,-13.14002278029346
16,3.201173902579683
17,-12.519424115257835
18,4.9247984854212529
2,1, 1, 1, 0, 2,15.00,30.00,Tuesday
7,-11.95
8,0.0
9,0.0
10,0.0
11,0.0
12,0.0
13,0.0
14,4.224993115004417
15,-12.962735217986216
16,3.1493016422662665
17,-12.334306039008823
18,4.833154992203011
2,1, 1, 1, 0, 2,30.00,45.00,Tuesday
7,-11.825
8,0.0
9,0.0
10,0.0
11,0.0
12,0.0
13,0.0
14,4.170400334173433
15,-12.78437014208372
16,3.101957227995399
17,-12.158053303468023
18,4.76457863605249
2,1, 1, 1, 0, 2,45.00,60.00,Tuesday
7,-11.7
8,0.0
9,0.0
10,0.0
11,0.0
12,0.0
13,0.0
14,4.125609029383515
15,-12.606077506622807
16,3.0663802622784717
17,-11.98100805753245
18,4.709974763578296
2,1, 1, 1, 0, 3, 0.00,15.00,Tuesday
7,-11.549999999999999
8,0.0
9,0.0
10,0.0
11,0.0
12,0.0
13,0.0
14,4.08180195765569
15,-12.480111144993576
16,3.0354145098917799
17,-11.851719367189844
18,4.661469110524415
2,1, 1, 1, 0, 3,15.00,30.00,Tuesday
7,-11.399999999999999
8,0.0
9,0.0
10,0.0
11,0.0
12,0.0
13,0.0
14,4.040940833143912
15,-12.355513126269792
16,3.0048013669309627
17,-11.716232908867937
18,4.615006570804474
2,1, 1, 1, 0, 3,30.00,45.00,Tuesday
7,-11.25
8,0.0
9,0.0
10,0.0
11,0.0
12,0.0
13,0.0
14,4.000819712953151
15,-12.232442761286118
16,2.9758459558755705
17,-11.580805152769188
18,4.569356905891135
2,1, 1, 1, 0, 3,45.00,60.00,Tuesday
7,-11.1
8,0.0
9,0.0
10,0.0
11,0.0
12,0.0
13,0.0
14,3.9610723895548887
15,-12.110960516573579
16,2.947427570768582
17,-11.445983516220736
18,4.524352893445338
2,1, 1, 1, 0, 4, 0.00,15.00,Tuesday
7,-11.1
8,0.0
9,0.0
10,0.0
11,0.0
12,0.0
13,0.0
14,3.918040199149559
15,-12.082150205648605
16,2.9058146087712659
17,-11.435972672471167
18,4.479638217695444
2,1, 1, 1, 0, 4,15.00,30.00,Tuesday
7,-11.1
8,0.0
9,0.0
10,0.0
11,0.0
12,0.0
13,0.0
14,3.8754468368028927
15,-12.054440578815886
16,2.8650618070156499
17,-11.43181381589227
18,4.434998302438562
2,1, 1, 1, 0, 4,30.00,45.00,Tuesday
7,-11.1
8,0.0
9,0.0
10,0.0
11,0.0
12,0.0
13,0.0
14,3.8328737535833885
15,-12.028279379012643
16,2.8245374773986215
17,-11.428105140601702
18,4.390400013337796
2,1, 1, 1, 0, 4,45.00,60.00,Tuesday
7,-11.1
8,0.0
9,0.0
10,0.0
11,0.0
12,0.0
13,0.0
14,3.790345835292143
15,-12.003539864943177
16,2.784082091376604
17,-11.424572066334008
18,4.345876281800465
2,1, 1, 1, 0, 5, 0.00,15.00,Tuesday
7,-10.975
8,0.0
9,0.0
10,0.0
11,0.0
12,0.0
13,0.0
14,3.7531191842695166
15,-11.881418883195464
16,2.755316783146668
17,-11.31831599201496
18,4.302163433482955
2,1, 1, 1, 0, 5,15.00,30.00,Tuesday
7,-10.85
8,0.0
9,0.0
10,0.0
11,0.0
12,0.0
13,0.0
14,3.7160071717074967
15,-11.759382795271505
16,2.7275354848529789
17,-11.20544084586868
18,4.259634459892311
2,1, 1, 1, 0, 5,30.00,45.00,Tuesday
7,-10.725
8,0.0
9,0.0
10,0.0
11,0.0
12,0.0
13,0.0
14,3.679692878950805
15,-11.637329481174066
16,2.7002170038566648
17,-11.092111394679876
18,4.218170836487447
2,1, 1, 1, 0, 5,45.00,60.00,Tuesday
7,-10.6
8,0.0
9,0.0
10,0.0
11,0.0
12,0.0
13,0.0
14,3.6440638365303554
15,-11.51528710241572
16,2.673608763349762
17,-10.978706576158914
18,4.1775196066021
2,1, 1, 1, 0, 6, 0.00,15.00,Tuesday
7,-10.6
8,0.0
9,0.0
10,0.0
11,0.0
12,0.0
13,0.0
14,3.601567264669863
15,-11.516129579152459
16,2.635292640562625
17,-10.974265305767517
18,4.136395337798973
2,1, 1, 1, 0, 6,15.00,30.00,Tuesday
7,-10.6
8,0.0
9,0.0
10,0.0
11,0.0
12,0.0
13,0.0
14,3.559674007203646
15,-11.516909801967567
16,2.595423485363767
17,-10.976808660366828
18,4.094148696370325
2,1, 1, 1, 0, 6,30.00,45.00,Tuesday
7,-10.6
8,0.0
9,0.0
10,0.0
11,0.0
12,0.0
13,0.0
14,3.5173053854320925
15,-11.517730510761558
16,2.555571879030822
17,-10.979772198089677
18,4.050970842242335
2,1, 1, 1, 0, 6,45.00,60.00,Tuesday
7,-10.6
8,0.0
9,0.0
10,0.0
11,0.0
12,0.0
13,0.0
14,3.474638345654387
15,-11.518550506257082
16,2.5153507318816539
17,-10.982792758717722
18,4.007285246278779
2,1, 1, 1, 0, 7, 0.00,15.00,Tuesday
7,-10.6
8,0.0
9,0.0
10,0.0
11,0.0
12,0.0
13,0.0
14,3.434057347037642
15,-11.494778028365542
16,2.475715997749603
17,-10.978723476259518
18,3.963811576798849
2,1, 1, 1, 0, 7,15.00,30.00,Tuesday
7,-10.6
8,0.0
9,0.0
10,0.0
11,0.0
12,0.0
13,0.0
14,3.3933487137375004
15,-11.47223454001812
16,2.4371974189760978
17,-10.974306171424133
18,3.9209079670755626
2,1, 1, 1, 0, 7,30.00,45.00,Tuesday
7,-10.6
8,0.0
9,0.0
10,0.0
11,0.0
12,0.0
13,0.0
14,3.352945274042097
15,-11.450836779279488
16,2.3988030655496574
17,-10.970039243093084
18,3.878529134093036
2,1, 1, 1, 0, 7,45.00,60.00,Tuesday
7,-10.6
8,0.0
9,0.0
10,0.0
11,0.0
12,0.0
13,0.0
14,3.312842262723392
15,-11.430517318349797
16,2.360693900625904
17,-10.965922151748942
18,3.836528696652769
2,1, 1, 1, 0, 8, 0.00,15.00,Tuesday
7,-10.45
8,0.0
9,0.0
10,0.0
11,0.0
12,0.0
13,0.0
14,3.271820895097315
15,-11.381491407320306
16,2.3267637234754376
17,-10.928064608178034
18,3.794273359800322
2,1, 1, 1, 0, 8,15.00,30.00,Tuesday
7,-10.3
8,115.03919117926972
9,1.0
10,22.819555959623899
11,1.0
12,22.819555959623899
13,115.03919117926972
14,3.341004163235485
15,-9.708239383769909
16,2.638272676235715
17,-10.629746703437946
18,3.767478406937865
2,1, 1, 1, 0, 8,30.00,45.00,Tuesday
7,-10.15
8,564.843581773016
9,1.0
10,109.75755355442667
11,1.0
12,109.75755355442667
13,564.843581773016
14,3.709561725381771
15,-3.341143614238852
16,4.073099779780364
17,-9.556121475387386
18,3.798615490188852
2,1, 1, 1, 0, 8,45.00,60.00,Tuesday
7,-10.0
8,1027.107415698465
9,1.0
10,195.8764694434918
11,1.0
12,195.8764694434918
13,1027.107415698465
14,4.155966068086311
15,3.1345875877618205
16,5.519951269409148
17,-8.453899168562544
18,3.896872191795513
2,1, 1, 1, 0, 9, 0.00,15.00,Tuesday
7,-9.725
8,1487.7790350735168
9,1.0
10,278.97248314719988
11,1.0
12,278.97248314719988
13,1487.7790350735168
14,4.5576086214247069
15,8.324728938067226
16,6.872217682370888
17,-7.466508599854706
18,4.049291489040104
2,1, 1, 1, 0, 9,15.00,30.00,Tuesday
7,-9.45
8,1973.3797118442713
9,1.0
10,364.91995730569456
11,1.0
12,364.91995730569456
13,1973.3797118442713
14,4.965680161518972
15,13.398509103473705
16,8.248382539907425
17,-6.478908267907627
18,4.2432872222618489
2,1, 1, 1, 0, 9,30.00,45.00,Tuesday
7,-9.175
8,2294.651274485231
9,1.0
10,420.35879993239237
11,1.0
12,420.35879993239237
13,2294.651274485231
14,5.241253677497259
15,16.156614748251348
16,9.206376694422375
17,-5.861852290909383
18,4.459743133062957
2,1, 1, 1, 0, 9,45.00,60.00,Tuesday
7,-8.9
8,2628.157408555287
9,1.0
10,478.00138373643099
11,1.0
12,478.00138373643099
13,2628.157408555287
14,5.570038991550133
15,19.15111784361815
16,10.15155663567765
17,-5.221140082842169
18,4.688783859031084
2,1, 1, 1, 0,10, 0.00,15.00,Tuesday
7,-8.350000000000002
8,2968.709586547734
9,1.0
10,536.9185644770597
11,1.0
12,536.9185644770597
13,2968.709586547734
14,5.8413306851534039
15,20.267915313416624
16,11.13305662100845
17,-4.425926236005523
18,4.932274340756972
2,1, 1, 1, 0,10,15.00,30.00,Tuesday
7,-7.800000000000001
8,3321.0268194611828
9,1.0
10,598.0969199229219
11,1.0
12,598.0969199229219
13,3321.0268194611828
14,6.138635847094326
15,21.520446664701699
16,12.133941634807912
17,-3.6589976313551348
18,5.196507886951829
2,1, 1, 1, 0,10,30.00,45.00,Tuesday
7,-7.25
8,3552.151013375401
9,1.0
10,637.6133352894237
11,1.0
12,637.6133352894237
13,3552.151013375401
14,6.365680162197297
15,21.579714068347504
16,12.862636337910772
17,-3.1001615635043437
18,5.4673644929773419
2,1, 1, 1, 0,10,45.00,60.00,Tuesday
7,-6.7
8,3779.8708706745844
9,1.0
10,676.6412284283772
11,1.0
12,676.6412284283772
13,3779.8708706745844
14,6.612928241992531
15,21.739526917050264
16,13.560695054802295
17,-2.5465705931553659
18,5.733770888488444
2,1, 1, 1, 0,11, 0.00,15.00,Tuesday
7,-6.275
8,4003.447923168032
9,1.0
10,715.0112779846514
11,1.0
12,715.0112779846514
13,4003.447923168032
14,6.935884361016281
15,23.837230933168926
16,14.259880708361039
17,-1.8502069351227988
18,5.997493746288122
2,1, 1, 1, 0,11,15.00,30.00,Tuesday
7,-5.85
8,4221.762249309513
9,1.0
10,752.5077794605232
11,1.0
12,752.5077794605232
13,4221.762249309513
14,7.246414442798319
15,25.772131481073715
16,14.952220919234606
17,-1.1636588589997246
18,6.262802199174231
2,1, 1, 1, 0,11,30.00,45.00,Tuesday
7,-5.425
8,4156.879578089225
9,1.0
10,742.5988714321785
11,1.0
12,742.5988714321785
13,4156.879578089225
14,7.426025398712369
15,25.623830198414685
16,15.061617338778092
17,-0.8534071510607078
18,6.5137472066658959
2,1, 1, 1, 0,11,45.00,60.00,Tuesday
7,-5.0
8,4064.169807818047
9,1.0
10,727.8169025450712
11,1.0
12,727.8169025450712
13,4064.169807818047
14,7.600864632006577
15,25.394639421177226
16,15.080815912054618
17,-0.5697903059716509
18,6.738714632639089
2,1, 1, 1, 0,12, 0.00,15.00,Tuesday
7,-4.575
8,3904.7370931113848
9,1.0
10,700.3759009170325
11,1.0
12,700.3759009170325
13,3904.7370931113848
14,7.720800754600988
15,24.65202135062148
16,14.942533755171269
17,-0.3317155757570731
18,6.931495039062557
2,1, 1, 1, 0,12,15.00,30.00,Tuesday
7,-4.15
8,3786.4971101905705
9,1.0
10,681.6705029034473
11,1.0
12,681.6705029034473
13,3786.4971101905705
14,7.862265039671361
15,24.321621853835983
16,14.879849892468997
17,-0.03184237680602564
18,7.09928746902336
2,1, 1, 1, 0,12,30.00,45.00,Tuesday
7,-3.7249999999999998
8,3324.2291040318089
9,1.0
10,602.01865277251
11,1.0
12,602.01865277251
13,3324.2291040318089
14,7.777355947976442
15,21.29319392805289
16,14.07166909484232
17,-0.1710003741521291
18,7.222591765841517
2,1, 1, 1, 0,12,45.00,60.00,Tuesday
7,-3.3
8,2714.939666512416
9,1.0
10,493.55004396206007
11,1.0
12,493.55004396206007
13,2714.939666512416
14,7.58651858563329
15,17.11473042890185
16,12.809260251995625
17,-0.5457159972721684
18,7.280656943988642
2,1, 1, 1, 0,13, 0.00,15.00,Tuesday
7,-3.0249999999999996
8,2241.7153986594264
9,1.0
10,412.335026418112
11,1.0
12,412.335026418112
13,2241.7153986594264
14,7.449870518378328
15,14.270504825865377
16,11.786734276538255
17,-0.7985088916025234
18,7.287592501968728
2,1, 1, 1, 0,13,15.00,30.00,Tuesday
7,-2.75
8,1641.850123185226
9,1.0
10,305.94037763660148
11,1.0
12,305.94037763660148
13,1641.850123185226
14,7.161970477142582
15,10.096398588252914
16,10.407917247030582
17,-1.2527004831409273
18,7.25019857764923
2,1, 1, 1, 0,13,30.00,45.00,Tuesday
7,-2.475
8,1498.9510431694724
9,1.0
10,281.0763483922329
11,1.0
12,281.0763483922329
13,1498.9510431694724
14,7.146281384669303
15,9.586003628925916
16,10.030804581141183
17,-1.1008900739803949
18,7.196602733143934
2,1, 1, 1, 0,13,45.00,60.00,Tuesday
7,-2.2
8,1359.0287484929959
9,1.0
10,256.7721209415886
11,1.0
12,256.7721209415886
13,1359.0287484929959
14,7.109690098678171
15,8.978688247665103
16,9.735150189541514
17,-0.9268196897122607
18,7.1502688961757239
2,1, 1, 1, 0,14, 0.00,15.00,Tuesday
7,-1.9250000000000003
8,1110.188267973163
9,1.0
10,210.73276284570657
11,1.0
12,210.73276284570657
13,1110.188267973163
14,6.987710083764173
15,7.430436344345252
16,9.124312599912856
17,-0.968158935534916
18,7.10726313126548
2,1, 1, 1, 0,14,15.00,30.00,Tuesday
7,-1.6500000000000002
8,986.2055451828589
9,1.0
10,189.38488290342594
11,1.0
12,189.38488290342594
13,986.2055451828589
14,6.9652498137099629
15,7.028121893640078
16,8.811589944516186
17,-0.8323641833030706
18,7.068200650832373
2,1, 1, 1, 0,14,30.00,45.00,Tuesday
7,-1.375
8,940.5609907953474
9,1.0
10,179.3940297802914
11,1.0
12,179.3940297802914
13,940.5609907953474
14,6.958191070893018
15,7.148990988985408
16,8.701897294643118
17,-0.5911963998597685
18,7.036141134411627
2,1, 1, 1, 0,14,45.00,60.00,Tuesday
7,-1.1
8,894.3949724036753
9,1.0
10,169.43349014176136
11,1.0
12,169.43349014176136
13,894.3949724036753
14,6.949524283217352
15,7.247926230148022
16,8.586769657752314
17,-0.35013442044584056
18,7.010691311840835
2,1, 1, 1, 0,15, 0.00,15.00,Tuesday
7,-1.1
8,941.4068197394458
9,1.0
10,178.15692317953907
11,1.0
12,178.15692317953907
13,941.4068197394458
14,6.997535588492935
15,8.064442063540272
16,8.70418802527422
17,-0.24597162352404212
18,6.995559105645494
2,1, 1, 1, 0,15,15.00,30.00,Tuesday
7,-1.1
8,884.4258525960432
9,1.0
10,166.40516310952945
11,1.0
12,166.40516310952945
13,884.4258525960432
14,6.955943919211226
15,7.700376600256573
16,8.555785586492732
17,-0.3163073177596516
18,6.983508839744614
2,1, 1, 1, 0,15,30.00,45.00,Tuesday
7,-1.1
8,745.7319878230006
9,1.0
10,140.8967369711617
11,1.0
12,140.8967369711617
13,745.7319878230006
14,6.855825671502374
15,6.494427328505224
16,8.164827344378864
17,-0.5533859923293676
18,6.961756083101581
2,1, 1, 1, 0,15,45.00,60.00,Tuesday
7,-1.1
8,613.6766501346383
9,1.0
10,116.57355796743004
11,1.0
12,116.57355796743004
13,613.6766501346383
14,6.759814711750743
15,5.288938505744751
16,7.765383704363217
17,-0.7955799274290598
18,6.923140198487093
2,1, 1, 1, 0,16, 0.00,15.00,Tuesday
7,-1.1
8,487.0488027440361
9,1.0
10,93.14939272689483
11,1.0
12,93.14939272689483
13,487.0488027440361
14,6.665153676354695
15,4.236184629386033
16,7.368761284662014
17,-0.9703459153165568
18,6.868470821216545
2,1, 1, 1, 0,16,15.00,30.00,Tuesday
7,-1.1
8,302.3607792671943
9,1.0
10,57.94047897402063
11,1.0
12,57.94047897402063
13,302.3607792671943
14,6.49010721781259
15,2.1115548827038328
16,6.743972579452475
17,-1.3110395072845336
18,6.793584525138398
2,1, 1, 1, 0,16,30.00,45.00,Tuesday
7,-1.1
8,234.42837183280779
9,1.0
10,45.38251793443488
11,1.0
12,45.38251793443488
13,234.42837183280779
14,6.420104026247724
15,1.4993534196656738
16,6.460792238880003
17,-1.4099443319279317
18,6.707899438423257
2,1, 1, 1, 0,16,45.00,60.00,Tuesday
7,-1.1
8,163.64653449269407
9,1.0
10,32.02625108222755
11,1.0
12,32.02625108222755
13,163.64653449269407
14,6.317089979527469
15,0.6350747498272131
16,6.202943907281281
17,-1.5280153571309257
18,6.617932407187014
2,1, 1, 1, 0,17, 0.00,15.00,Tuesday
7,-1.1
8,89.75989496584296
9,1.0
10,17.762198626050539
11,1.0
12,17.762198626050539
13,89.75989496584296
14,6.185840540603786
15,-0.6179249955201044
16,5.908138799219387
17,-1.7776161778874667
18,6.527055403112804
2,1, 1, 1, 0,17,15.00,30.00,Tuesday
7,-1.1
8,0.0
9,0.0
10,0.0
11,0.0
12,0.0
13,0.0
14,6.007966352076283
15,-2.4557246263671645
16,5.554911978621362
17,-2.0355817829304216
18,6.4266226298043629
2,1, 1, 1, 0,17,30.00,45.00,Tuesday
7,-1.1
8,0.0
9,0.0
10,0.0
11,0.0
12,0.0
13,0.0
14,5.954851062189995
15,-2.5925419850435778
16,5.448768502610392
17,-2.1091535996923769
18,6.329580470544269
2,1, 1, 1, 0,17,45.00,60.00,Tuesday
7,-1.1
8,0.0
9,0.0
10,0.0
11,0.0
12,0.0
13,0.0
14,5.888021988460065
15,-2.7846819023271389
16,5.386072317723006
17,-2.195687423259926
18,6.247983439290315
2,1, 1, 1, 0,18, 0.00,15.00,Tuesday
7,-1.25
8,0.0
9,0.0
10,0.0
11,0.0
12,0.0
13,0.0
14,5.832775343793808
15,-2.9323085693422956
16,5.31289631818089
17,-2.3504223223860665
18,6.1830594103787039
2,1, 1, 1, 0,18,15.00,30.00,Tuesday
7,-1.4
8,0.0
9,0.0
10,0.0
11,0.0
12,0.0
13,0.0
14,5.782695283920383
15,-3.0846277960015358
16,5.253651245318906
17,-2.494861375473306
18,6.130269713745823
2,1, 1, 1, 0,18,30.00,45.00,Tuesday
7,-1.5499999999999999
8,0.0
9,0.0
10,0.0
11,0.0
12,0.0
13,0.0
14,5.736994307882302
15,-3.2364509081650798
16,5.198926307824138
17,-2.639823992588674
18,6.084542854330286
2,1, 1, 1, 0,18,45.00,60.00,Tuesday
7,-1.7
8,0.0
9,0.0
10,0.0
11,0.0
12,0.0
13,0.0
14,5.693560072706037
15,-3.388434649458258
16,5.147494144081065
17,-2.7844314065676487
18,6.0424646824206
2,1, 1, 1, 0,19, 0.00,15.00,Tuesday
7,-1.825
8,0.0
9,0.0
10,0.0
11,0.0
12,0.0
13,0.0
14,5.675665438822466
15,-3.239082026494286
16,5.109548149257648
17,-2.7831082772424908
18,6.005995490103974
2,1, 1, 1, 0,19,15.00,30.00,Tuesday
7,-1.9500000000000002
8,0.0
9,0.0
10,0.0
11,0.0
12,0.0
13,0.0
14,5.6572195165240919
15,-3.171268222369986
16,5.0886050292833719
17,-2.806293126257401
18,5.976817751195253
2,1, 1, 1, 0,19,30.00,45.00,Tuesday
7,-2.075
8,0.0
9,0.0
10,0.0
11,0.0
12,0.0
13,0.0
14,5.634128876454317
15,-3.244709457595069
16,5.060715244766811
17,-2.8996016031811679
18,5.953231939104619
2,1, 1, 1, 0,19,45.00,60.00,Tuesday
7,-2.2
8,0.0
9,0.0
10,0.0
11,0.0
12,0.0
13,0.0
14,5.614290224199449
15,-3.221632731472498
16,5.0379600222720459
17,-2.944647458173563
18,5.932187976375099
2,1, 1, 1, 0,20, 0.00,15.00,Tuesday
7,-1.9250000000000003
8,0.0
9,0.0
10,0.0
11,0.0
12,0.0
13,0.0
14,5.610172110076847
15,-2.9202025706874594
16,5.046767167335929
17,-2.6741413696670408
18,5.913321926467735
2,1, 1, 1, 0,20,15.00,30.00,Tuesday
7,-1.6500000000000002
8,0.0
9,0.0
10,0.0
11,0.0
12,0.0
13,0.0
14,5.605565037103873
15,-2.621835724731381
16,5.059784969118027
17,-2.4032981963690647
18,5.896829892194736
2,1, 1, 1, 0,20,30.00,45.00,Tuesday
7,-1.375
8,0.0
9,0.0
10,0.0
11,0.0
12,0.0
13,0.0
14,5.602332412318013
15,-2.324737289749574
16,5.073609010406585
17,-2.1323909052632645
18,5.8824520712541858
2,1, 1, 1, 0,20,45.00,60.00,Tuesday
7,-1.1
8,0.0
9,0.0
10,0.0
11,0.0
12,0.0
13,0.0
14,5.600323031532903
15,-2.028919199560711
16,5.088746975965137
17,-1.8613807680746959
18,5.869742103014233
2,1, 1, 1, 0,21, 0.00,15.00,Tuesday
7,-1.25
8,0.0
9,0.0
10,0.0
11,0.0
12,0.0
13,0.0
14,5.556831860111869
15,-2.310692101499968
16,5.055498193301901
17,-2.0692712881220816
18,5.852684515908495
2,1, 1, 1, 0,21,15.00,30.00,Tuesday
7,-1.4
8,0.0
9,0.0
10,0.0
11,0.0
12,0.0
13,0.0
14,5.514631532317635
15,-2.527564615319514
16,5.010358674270435
17,-2.2304233388060767
18,5.826838580987905
2,1, 1, 1, 0,21,30.00,45.00,Tuesday
7,-1.5499999999999999
8,0.0
9,0.0
10,0.0
11,0.0
12,0.0
13,0.0
14,5.4588763421150399
15,-2.8727357393515007
16,4.953142675931815
17,-2.4617075852362406
18,5.7910426585978789
2,1, 1, 1, 0,21,45.00,60.00,Tuesday
7,-1.7
8,0.0
9,0.0
10,0.0
11,0.0
12,0.0
13,0.0
14,5.3977141919249249
15,-3.325607083117716
16,4.8839599468135479
17,-2.7242149407965714
18,5.747076600706274
2,1, 1, 1, 0,22, 0.00,15.00,Tuesday
7,-1.5499999999999999
8,0.0
9,0.0
10,0.0
11,0.0
12,0.0
13,0.0
14,5.405867704127109
15,-2.8368385422734896
16,4.869487054313652
17,-2.4402688566688086
18,5.708590390511933
2,1, 1, 1, 0,22,15.00,30.00,Tuesday
7,-1.4
8,0.0
9,0.0
10,0.0
11,0.0
12,0.0
13,0.0
14,5.403247078122925
15,-2.505815249932687
16,4.880469143143387
17,-2.219310276944043
18,5.682999704534669
2,1, 1, 1, 0,22,30.00,45.00,Tuesday
7,-1.25
8,0.0
9,0.0
10,0.0
11,0.0
12,0.0
13,0.0
14,5.39978218148527
15,-2.285271728907311
16,4.887328617330013
17,-2.055873202332009
18,5.668099521163312
2,1, 1, 1, 0,22,45.00,60.00,Tuesday
7,-1.1
8,0.0
9,0.0
10,0.0
11,0.0
12,0.0
13,0.0
14,5.400299609705786
15,-2.0020632196642427
16,4.899895879015958
17,-1.8401464200402416
18,5.65871860130545
2,1, 1, 1, 0,23, 0.00,15.00,Tuesday
7,-1.25
8,0.0
9,0.0
10,0.0
11,0.0
12,0.0
13,0.0
14,5.3571869916837209
15,-2.3053804944022269
16,4.858504183868774
17,-2.1569892157571646
18,5.645130733989831
2,1, 1, 1, 0,23,15.00,30.00,Tuesday
7,-1.4
8,0.0
9,0.0
10,0.0
11,0.0
12,0.0
13,0.0
14,5.31676105581217
15,-2.6099036396611399
16,4.7983882538222819
17,-2.4756022361531224
18,5.622284721984715
2,1, 1, 1, 0,23,30.00,45.00,Tuesday
7,-1.5499999999999999
8,0.0
9,0.0
10,0.0
11,0.0
12,0.0
13,0.0
14,5.272140311868616
15,-2.915067064007746
16,4.737112699465797
17,-2.7939161712157558
18,5.590976736804935
2,1, 1, 1, 0,23,45.00,60.00,Tuesday
7,-1.7
8,0.0
9,0.0
10,0.0
11,0.0
12,0.0
13,0.0
14,5.2239037954274309
15,-3.2205726016382876
16,4.672076463244025
17,-3.11222283523756
18,5.55385794041741
2,1, 1, 1, 0,24, 0.00,15.00,Tuesday
7,-1.7
8,0.0
9,0.0
10,0.0
11,0.0
12,0.0
13,0.0
14,5.192317873282772
15,-3.2745061285166829
16,4.630913108641266
17,-3.170758216169247
18,5.515942800426657
2,1, 1, 1, 0,24,15.00,30.00,Tuesday
7,-1.7
8,0.0
9,0.0
10,0.0
11,0.0
12,0.0
13,0.0
14,5.157705839479136
15,-3.329114065881882
16,4.5950859930803749
17,-3.2326097033839007
18,5.480009288466408
2,1, 1, 1, 0,24,30.00,45.00,Tuesday
7,-1.7
8,0.0
9,0.0
10,0.0
11,0.0
12,0.0
13,0.0
14,5.123947219909966
15,-3.3835858966845624
16,4.558588076010437
17,-3.294656479714945
18,5.446142968837997
2,1, 1, 1, 0,24,45.00,60.00,Tuesday
7,-1.7
8,0.0
9,0.0
10,0.0
11,0.0
12,0.0
13,0.0
14,5.090831686245578
15,-3.438061737953165
16,4.522820106230029
17,-3.356587210914995
18,5.413516028257759
End of Data
 Number of Records Written=        1152
