Program Version,EnergyPlus, Version 9.5.0-de239b2e5f, YMD=2023.02.16 18:16
1,5,Environment Title[],Latitude[deg],Longitude[deg],Time Zone[],Elevation[m]
2,8,Day of Simulation[],Month[],Day of Month[],DST Indicator[1=yes 0=no],Hour[],StartMinute[],EndMinute[],DayType
3,5,Cumulative Day of Simulation[],Month[],Day of Month[],DST Indicator[1=yes 0=no],DayType  ! When Daily Report Variables Requested
4,2,Cumulative Days of Simulation[],Month[]  ! When Monthly Report Variables Requested
5,1,Cumulative Days of Simulation[] ! When Run Period Report Variables Requested
6,1,Calendar Year of Simulation[] ! When Annual Report Variables Requested
7,1,Environment,Site Outdoor Air Drybulb Temperature [C] !TimeStep
8,1,ZONE ONE,Zone Windows Total Transmitted Solar Radiation Rate [W] !TimeStep
9,1,ZN001:WALL001,Surface Outside Face Sunlit Fraction [] !TimeStep
10,1,ZN001:WALL001,Surface Outside Face Incident Solar Radiation Rate per Area [W/m2] !TimeStep
11,1,ZN001:WALL001:WIN001,Surface Outside Face Sunlit Fraction [] !TimeStep
12,1,ZN001:WALL001:WIN001,Surface Outside Face Incident Solar Radiation Rate per Area [W/m2] !TimeStep
13,1,ZN001:WALL001:WIN001,Surface Window Transmitted Solar Radiation Rate [W] !TimeStep
14,1,ZN001:WALL001,Surface Inside Face Temperature [C] !TimeStep
15,1,ZN001:WALL001,Surface Outside Face Temperature [C] !TimeStep
16,1,ZN001:WALL001:WIN001,Surface Inside Face Temperature [C] !TimeStep
17,1,ZN001:WALL001:WIN001,Surface Outside Face Temperature [C] !TimeStep
18,1,ZONE ONE,Zone Mean Air Temperature [C] !TimeStep
End of Data Dictionary
1,RUN PERIOD 1,  41.98, -87.92,  -6.00, 201.00
2,1, 1, 1, 0, 1, 0.00,15.00,Tuesday
7,-4.324999999999999
8,0.0
9,0.0
10,0.0
11,0.0
12,0.0
13,0.0
14,3.592095654467086
15,-5.938467026451231
16,2.860895092299529
17,-5.654458120772858
18,4.0083004288326429
2,1, 1, 1, 0, 1,15.00,30.00,Tuesday
7,-6.949999999999999
8,0.0
9,0.0
10,0.0
11,0.0
12,0.0
13,0.0
14,3.421734438293969
15,-8.406121335078718
16,2.5116355606377285
17,-7.944151252700522
18,3.928652326024195
2,1, 1, 1, 0, 1,30.00,45.00,Tuesday
7,-9.575
8,0.0
9,0.0
10,0.0
11,0.0
12,0.0
13,0.0
14,3.234127048799106
15,-10.881757561742111
16,2.1604778190076674
17,-10.251009709418725
18,3.8203739583884488
2,1, 1, 1, 0, 1,45.00,60.00,Tuesday
7,-12.2
8,0.0
9,0.0
10,0.0
11,0.0
12,0.0
13,0.0
14,3.0326216046352738
15,-13.363961153081787
16,1.7935895193176066
17,-12.557431504136958
18,3.6915411968750639
2,1, 1, 1, 0, 2, 0.00,15.00,Tuesday
7,-12.075
8,0.0
9,0.0
10,0.0
11,0.0
12,0.0
13,0.0
14,2.9801812254752519
15,-13.165092115632115
16,1.696478925866586
17,-12.415242210167208
18,3.5738554978879835
2,1, 1, 1, 0, 2,15.00,30.00,Tuesday
7,-11.95
8,0.0
9,0.0
10,0.0
11,0.0
12,0.0
13,0.0
14,2.913109566270118
15,-12.98775151990037
16,1.650177452093999
17,-12.232769773252358
18,3.483366525397572
2,1, 1, 1, 0, 2,30.00,45.00,Tuesday
7,-11.825
8,0.0
9,0.0
10,0.0
11,0.0
12,0.0
13,0.0
14,2.860930750209036
15,-12.809312220518187
16,1.608582363653909
17,-12.059264068424909
18,3.4165097852427577
2,1, 1, 1, 0, 2,45.00,60.00,Tuesday
7,-11.7
8,0.0
9,0.0
10,0.0
11,0.0
12,0.0
13,0.0
14,2.818769467237713
15,-12.630939830938014
16,1.5789119684001208
17,-11.884804980828563
18,3.364126451357737
2,1, 1, 1, 0, 3, 0.00,15.00,Tuesday
7,-11.549999999999999
8,0.0
9,0.0
10,0.0
11,0.0
12,0.0
13,0.0
14,2.77766553808053
15,-12.505588188046593
16,1.55367182077606
17,-11.755925056734839
18,3.318196027264824
2,1, 1, 1, 0, 3,15.00,30.00,Tuesday
7,-11.399999999999999
8,0.0
9,0.0
10,0.0
11,0.0
12,0.0
13,0.0
14,2.7396383258998546
15,-12.381631374005217
16,1.5287680737636152
17,-11.620762447717766
18,3.2745186093223856
2,1, 1, 1, 0, 3,30.00,45.00,Tuesday
7,-11.25
8,0.0
9,0.0
10,0.0
11,0.0
12,0.0
13,0.0
14,2.702426800347171
15,-12.25923472569174
16,1.5055726168577622
17,-11.485592729745918
18,3.231765472471332
2,1, 1, 1, 0, 3,45.00,60.00,Tuesday
7,-11.1
8,0.0
9,0.0
10,0.0
11,0.0
12,0.0
13,0.0
14,2.6656252965806699
15,-12.138459876798791
16,1.4829486449717707
17,-11.351020832495806
18,3.1897170440971025
2,1, 1, 1, 0, 4, 0.00,15.00,Tuesday
7,-11.1
8,0.0
9,0.0
10,0.0
11,0.0
12,0.0
13,0.0
14,2.6255509456964147
15,-12.10880720300811
16,1.4441434152038256
17,-11.342766055569314
18,3.1479677673885857
2,1, 1, 1, 0, 4,15.00,30.00,Tuesday
7,-11.1
8,0.0
9,0.0
10,0.0
11,0.0
12,0.0
13,0.0
14,2.5859104317774537
15,-12.080290870477619
16,1.4066117095115943
17,-11.340829491976593
18,3.106288081009828
2,1, 1, 1, 0, 4,30.00,45.00,Tuesday
7,-11.1
8,0.0
9,0.0
10,0.0
11,0.0
12,0.0
13,0.0
14,2.5462814543902585
15,-12.05336279595668
16,1.369336484481778
17,-11.33930947697047
18,3.064643890140361
2,1, 1, 1, 0, 4,45.00,60.00,Tuesday
7,-11.1
8,0.0
9,0.0
10,0.0
11,0.0
12,0.0
13,0.0
14,2.5066883681851355
15,-12.027894357388805
16,1.3321309520021032
17,-11.337880548061321
18,3.0230691361876946
2,1, 1, 1, 0, 5, 0.00,15.00,Tuesday
7,-10.975
8,0.0
9,0.0
10,0.0
11,0.0
12,0.0
13,0.0
14,2.4724627115885036
15,-11.905696662020258
16,1.3089535923457448
17,-11.233774407896249
18,2.9823205216602775
2,1, 1, 1, 0, 5,15.00,30.00,Tuesday
7,-10.85
8,0.0
9,0.0
10,0.0
11,0.0
12,0.0
13,0.0
14,2.438353589957704
15,-11.783591037219738
16,1.2864515551872842
17,-11.122719766428873
18,2.9427767777805777
2,1, 1, 1, 0, 5,30.00,45.00,Tuesday
7,-10.725
8,0.0
9,0.0
10,0.0
11,0.0
12,0.0
13,0.0
14,2.4050464026812339
15,-11.661468207746506
16,1.2643896163895079
17,-11.011149684084672
18,2.9043166227245158
2,1, 1, 1, 0, 5,45.00,60.00,Tuesday
7,-10.6
8,0.0
9,0.0
10,0.0
11,0.0
12,0.0
13,0.0
14,2.3724290938491134
15,-11.539356303690005
16,1.2430368261031504
17,-10.899483842754421
18,2.866681776501226
2,1, 1, 1, 0, 6, 0.00,15.00,Tuesday
7,-10.6
8,0.0
9,0.0
10,0.0
11,0.0
12,0.0
13,0.0
14,2.3327771977835036
15,-11.540154509473873
16,1.2059970831710985
17,-10.898075120815236
18,2.8286019336608159
2,1, 1, 1, 0, 6,15.00,30.00,Tuesday
7,-10.6
8,0.0
9,0.0
10,0.0
11,0.0
12,0.0
13,0.0
14,2.293770870555493
15,-11.540880151715108
16,1.1692589179095876
17,-10.900097480087311
18,2.789380091647053
2,1, 1, 1, 0, 6,30.00,45.00,Tuesday
7,-10.6
8,0.0
9,0.0
10,0.0
11,0.0
12,0.0
13,0.0
14,2.2542813582136418
15,-11.541646777737
16,1.1326743346568265
17,-10.903026638051017
18,2.749183506861913
2,1, 1, 1, 0, 6,45.00,60.00,Tuesday
7,-10.6
8,0.0
9,0.0
10,0.0
11,0.0
12,0.0
13,0.0
14,2.2145038440222799
15,-11.542413256678323
16,1.0976793583974996
17,-10.904439882937254
18,2.708400193322454
2,1, 1, 1, 0, 7, 0.00,15.00,Tuesday
7,-10.6
8,0.0
9,0.0
10,0.0
11,0.0
12,0.0
13,0.0
14,2.1767859687559176
15,-11.517961198703743
16,1.0594598136691503
17,-10.904659637092323
18,2.6678331771945937
2,1, 1, 1, 0, 7,15.00,30.00,Tuesday
7,-10.6
8,0.0
9,0.0
10,0.0
11,0.0
12,0.0
13,0.0
14,2.138972620550625
15,-11.494773308746023
16,1.0244668728554416
17,-10.902516629399486
18,2.6278394403156946
2,1, 1, 1, 0, 7,30.00,45.00,Tuesday
7,-10.6
8,0.0
9,0.0
10,0.0
11,0.0
12,0.0
13,0.0
14,2.1014503776197768
15,-11.47276186881217
16,0.9893355232596264
17,-10.900047394585556
18,2.5883660231743135
2,1, 1, 1, 0, 7,45.00,60.00,Tuesday
7,-10.6
8,0.0
9,0.0
10,0.0
11,0.0
12,0.0
13,0.0
14,2.064222338967033
15,-11.451858095571973
16,0.9544789176218274
17,-10.897526887268669
18,2.54926256401042
2,1, 1, 1, 0, 8, 0.00,15.00,Tuesday
7,-10.45
8,0.0
9,0.0
10,0.0
11,0.0
12,0.0
13,0.0
14,2.0260247100563495
15,-11.403319330701152
16,0.926265806967649
17,-10.856617776850385
18,2.5098653967549837
2,1, 1, 1, 0, 8,15.00,30.00,Tuesday
7,-10.3
8,92.15750704739708
9,1.0
10,22.819555959623899
11,1.0
12,22.819555959623899
13,92.15750704739708
14,2.0945409449988476
15,-9.730312460610897
16,1.2968878094967523
17,-10.515183588185608
18,2.4853993263903457
2,1, 1, 1, 0, 8,30.00,45.00,Tuesday
7,-10.15
8,454.0668273181285
9,1.0
10,109.75755355442667
11,1.0
12,109.75755355442667
13,454.0668273181285
14,2.453351974097614
15,-3.3666466050461327
16,2.944591891879327
17,-9.279113430988105
18,2.516452178855324
2,1, 1, 1, 0, 8,45.00,60.00,Tuesday
7,-10.0
8,829.8784025660395
9,1.0
10,195.8764694434918
11,1.0
12,195.8764694434918
13,829.8784025660395
14,2.8909550949944506
15,3.115254445403228
16,4.536366086865428
17,-8.051337014738863
18,2.6123940365189037
2,1, 1, 1, 0, 9, 0.00,15.00,Tuesday
7,-9.725
8,1208.431253707413
9,1.0
10,278.97248314719988
11,1.0
12,278.97248314719988
13,1208.431253707413
14,3.2649781266793265
15,8.302442521582887
16,5.994277882983738
17,-6.9765430643579979
18,2.762015779370406
2,1, 1, 1, 0, 9,15.00,30.00,Tuesday
7,-9.45
8,1611.27847082868
9,1.0
10,364.91995730569456
11,1.0
12,364.91995730569456
13,1611.27847082868
14,3.6625737117516357
15,13.378660189209985
16,7.4568471162800169
17,-5.9148837549795989
18,2.951645016629442
2,1, 1, 1, 0, 9,30.00,45.00,Tuesday
7,-9.175
8,1882.5474509696963
9,1.0
10,420.35879993239237
11,1.0
12,420.35879993239237
13,1882.5474509696963
14,3.9231781108802457
15,16.1373162684234
16,8.450886751674603
17,-5.268324553045829
18,3.1627137668046916
2,1, 1, 1, 0, 9,45.00,60.00,Tuesday
7,-8.9
8,2165.2536956705005
9,1.0
10,478.00138373643099
11,1.0
12,478.00138373643099
13,2165.2536956705005
14,4.238408686938475
15,19.13224556570891
16,9.432869149971112
17,-4.594644439635033
18,3.3860912912269116
2,1, 1, 1, 0,10, 0.00,15.00,Tuesday
7,-8.350000000000002
8,2454.840672138349
9,1.0
10,536.9185644770597
11,1.0
12,536.9185644770597
13,2454.840672138349
14,4.494194427679901
15,20.250443003085797
16,10.4522382838868
17,-3.803632872618266
18,3.627659375618497
2,1, 1, 1, 0,10,15.00,30.00,Tuesday
7,-7.800000000000001
8,2754.837686584413
9,1.0
10,598.0969199229219
11,1.0
12,598.0969199229219
13,2754.837686584413
14,4.7768889280770729
15,21.50410984142676
16,11.49644303232742
17,-3.0354517125835516
18,3.885803256728773
2,1, 1, 1, 0,10,30.00,45.00,Tuesday
7,-7.25
8,2954.460675234528
9,1.0
10,637.6133352894237
11,1.0
12,637.6133352894237
13,2954.460675234528
14,4.9898754689502768
15,21.564305254474946
16,12.244439852510596
17,-2.5039569635248997
18,4.14608405880411
2,1, 1, 1, 0,10,45.00,60.00,Tuesday
7,-6.7
8,3151.0542115929945
9,1.0
10,676.6412284283772
11,1.0
12,676.6412284283772
13,3151.0542115929945
14,5.220403541071246
15,21.724875257928468
16,12.960664556203369
17,-1.950400112109719
18,4.399286489915348
2,1, 1, 1, 0,11, 0.00,15.00,Tuesday
7,-6.275
8,3343.9250631385687
9,1.0
10,715.0112779846514
11,1.0
12,715.0112779846514
13,3343.9250631385687
14,5.5267276088687569
15,23.82243371403676
16,13.681785506584675
17,-1.2334843339110649
18,4.648478230780421
2,1, 1, 1, 0,11,15.00,30.00,Tuesday
7,-5.85
8,3532.070082927922
9,1.0
10,752.5077794605232
11,1.0
12,752.5077794605232
13,3532.070082927922
14,5.819583434056205
15,25.757251298940994
16,14.392635929015683
17,-0.5278986636415084
18,4.898418762875532
2,1, 1, 1, 0,11,30.00,45.00,Tuesday
7,-5.425
8,3479.1857131981189
9,1.0
10,742.5988714321785
11,1.0
12,742.5988714321785
13,3479.1857131981189
14,5.985110629476571
15,25.608912476510797
16,14.482104101703044
17,-0.22626215966170094
18,5.1334994698763369
2,1, 1, 1, 0,11,45.00,60.00,Tuesday
7,-5.0
8,3401.966428615978
9,1.0
10,727.8169025450712
11,1.0
12,727.8169025450712
13,3401.966428615978
14,6.146061518723861
15,25.379538577557285
16,14.477815611179949
17,0.04527106133059533
18,5.342610463790654
2,1, 1, 1, 0,12, 0.00,15.00,Tuesday
7,-4.575
8,3268.9162799877196
9,1.0
10,700.3759009170325
11,1.0
12,700.3759009170325
13,3268.9162799877196
14,6.25468187610203
15,24.636766698436607
16,14.300527074534444
17,0.2593684696510081
18,5.520169254546543
2,1, 1, 1, 0,12,15.00,30.00,Tuesday
7,-4.15
8,3167.996389959925
9,1.0
10,681.6705029034473
11,1.0
12,681.6705029034473
13,3167.996389959925
14,6.383271905744842
15,24.30619556401364
16,14.21809873621703
17,0.5461740037903837
18,5.673392215295578
2,1, 1, 1, 0,12,30.00,45.00,Tuesday
7,-3.7249999999999998
8,2777.3496836530587
9,1.0
10,602.01865277251
11,1.0
12,602.01865277251
13,2777.3496836530587
14,6.29460710278166
15,21.277674062001699
16,13.327502926565217
17,0.354632483715136
18,5.783798302935742
2,1, 1, 1, 0,12,45.00,60.00,Tuesday
7,-3.3
8,2266.039030991335
9,1.0
10,493.55004396206007
11,1.0
12,493.55004396206007
13,2266.039030991335
14,6.10499589660476
15,17.098969195766317
16,11.947520567924017
17,-0.10657486034733665
18,5.832849871357502
2,1, 1, 1, 0,13, 0.00,15.00,Tuesday
7,-3.0249999999999996
8,1864.918535661873
9,1.0
10,412.335026418112
11,1.0
12,412.335026418112
13,1864.918535661873
14,5.969329456865629
15,14.254303567012047
16,10.856307572314677
17,-0.4105057033616504
18,5.832848549570526
2,1, 1, 1, 0,13,15.00,30.00,Tuesday
7,-2.75
8,1360.7676135935772
9,1.0
10,305.94037763660148
11,1.0
12,305.94037763660148
13,1360.7676135935772
14,5.700312680774213
15,10.079678160612275
16,9.363784033941102
17,-0.9444127377104792
18,5.786445079827104
2,1, 1, 1, 0,13,30.00,45.00,Tuesday
7,-2.475
8,1239.845359812998
9,1.0
10,281.0763483922329
11,1.0
12,281.0763483922329
13,1239.845359812998
14,5.6798822850457679
15,9.56931700842153
16,8.97884979784186
17,-0.8107439668133338
18,5.726130235603086
2,1, 1, 1, 0,13,45.00,60.00,Tuesday
7,-2.2
8,1121.425395556538
9,1.0
10,256.7721209415886
11,1.0
12,256.7721209415886
13,1121.425395556538
14,5.643006377192186
15,8.96159009757638
16,8.657806343126709
17,-0.6545852497932856
18,5.67564788655302
2,1, 1, 1, 0,14, 0.00,15.00,Tuesday
7,-1.9250000000000003
8,914.5926123773469
9,1.0
10,210.73276284570657
11,1.0
12,210.73276284570657
13,914.5926123773469
14,5.527620326655277
15,7.412571798686266
16,7.987579191970838
17,-0.7357528125949102
18,5.6301528969425089
2,1, 1, 1, 0,14,15.00,30.00,Tuesday
7,-1.6500000000000002
8,809.6775858076765
9,1.0
10,189.38488290342594
11,1.0
12,189.38488290342594
13,809.6775858076765
14,5.50595036882335
15,7.009751431371526
16,7.661206177571955
17,-0.6132280245736297
18,5.589987868093359
2,1, 1, 1, 0,14,30.00,45.00,Tuesday
7,-1.375
8,773.1146972475121
9,1.0
10,179.3940297802914
11,1.0
12,179.3940297802914
13,773.1146972475121
14,5.50112191542006
15,7.129946445423112
16,7.534214025234803
17,-0.3840712208829018
18,5.557769190629976
2,1, 1, 1, 0,14,45.00,60.00,Tuesday
7,-1.1
8,735.7893474842847
9,1.0
10,169.43349014176136
11,1.0
12,169.43349014176136
13,735.7893474842847
14,5.495391679496417
15,7.228235081155764
16,7.404365035296337
17,-0.15526752620644403
18,5.53284505305389
2,1, 1, 1, 0,15, 0.00,15.00,Tuesday
7,-1.1
8,773.8909461974802
9,1.0
10,178.15692317953907
11,1.0
12,178.15692317953907
13,773.8909461974802
14,5.542752041660311
15,8.044428360573156
16,7.5384656739574329
17,-0.03664022777007858
18,5.518419978530606
2,1, 1, 1, 0,15,15.00,30.00,Tuesday
7,-1.1
8,726.941996004965
9,1.0
10,166.40516310952945
11,1.0
12,166.40516310952945
13,726.941996004965
14,5.506648970010919
15,7.680943568453475
16,7.365229884429084
17,-0.11686948417383292
18,5.507048212238173
2,1, 1, 1, 0,15,30.00,45.00,Tuesday
7,-1.1
8,611.5649513491846
9,1.0
10,140.8967369711617
11,1.0
12,140.8967369711617
13,611.5649513491846
14,5.403073482489874
15,6.464462606405804
16,6.942405326827327
17,-0.37627938077730507
18,5.486468826888981
2,1, 1, 1, 0,15,45.00,60.00,Tuesday
7,-1.1
8,502.0061046110028
9,1.0
10,116.57355796743004
11,1.0
12,116.57355796743004
13,502.0061046110028
14,5.315374211649557
15,5.2665720882627939
16,6.5123791330548219
17,-0.6407835762433365
18,5.449839990985248
2,1, 1, 1, 0,16, 0.00,15.00,Tuesday
7,-1.1
8,397.3564596057699
9,1.0
10,93.14939272689483
11,1.0
12,93.14939272689483
13,397.3564596057699
14,5.225088761021772
15,4.21151204734559
16,6.0874389278735638
17,-0.8372041582463794
18,5.398063901439722
2,1, 1, 1, 0,16,15.00,30.00,Tuesday
7,-1.1
8,246.0241224001257
9,1.0
10,57.94047897402063
11,1.0
12,57.94047897402063
13,246.0241224001257
14,5.0576165924513039
15,2.0847910256145045
16,5.412269022128953
17,-1.223128991332942
18,5.3272163341725708
2,1, 1, 1, 0,16,30.00,45.00,Tuesday
7,-1.1
8,190.18037094464638
9,1.0
10,45.38251793443488
11,1.0
12,45.38251793443488
13,190.18037094464638
14,4.991370229042093
15,1.4702007632543013
16,5.104897418160363
17,-1.3400099055214697
18,5.246975911693744
2,1, 1, 1, 0,16,45.00,60.00,Tuesday
7,-1.1
8,132.41076891910806
9,1.0
10,32.02625108222755
11,1.0
12,32.02625108222755
13,132.41076891910806
14,4.893604623507044
15,0.6030455143275875
16,4.820552726625067
17,-1.4793355534250168
18,5.1643387271595249
2,1, 1, 1, 0,17, 0.00,15.00,Tuesday
7,-1.1
8,72.49471069167912
9,1.0
10,17.762198626050539
11,1.0
12,17.762198626050539
13,72.49471069167912
14,4.7684729974044679
15,-0.6537940585316955
16,4.496524297577821
17,-1.7560275733031859
18,5.076937347970102
2,1, 1, 1, 0,17,15.00,30.00,Tuesday
7,-1.1
8,0.0
9,0.0
10,0.0
11,0.0
12,0.0
13,0.0
14,4.595513972083777
15,-2.493451132161685
16,4.10521705190115
17,-2.053568190343924
18,4.977797115134655
2,1, 1, 1, 0,17,30.00,45.00,Tuesday
7,-1.1
8,0.0
9,0.0
10,0.0
11,0.0
12,0.0
13,0.0
14,4.544485661843947
15,-2.63203590694981
16,4.003000837538821
17,-2.126856522318917
18,4.881443865136724
2,1, 1, 1, 0,17,45.00,60.00,Tuesday
7,-1.1
8,0.0
9,0.0
10,0.0
11,0.0
12,0.0
13,0.0
14,4.479960059822488
15,-2.827365381227904
16,3.9417114395453725
17,-2.2135317617259036
18,4.800594954228029
2,1, 1, 1, 0,18, 0.00,15.00,Tuesday
7,-1.25
8,0.0
9,0.0
10,0.0
11,0.0
12,0.0
13,0.0
14,4.427199910531971
15,-2.9745968356664997
16,3.8694400957865016
17,-2.3664444954550847
18,4.736805211790794
2,1, 1, 1, 0,18,15.00,30.00,Tuesday
7,-1.4
8,0.0
9,0.0
10,0.0
11,0.0
12,0.0
13,0.0
14,4.379648039375861
15,-3.1269113174565068
16,3.8107359123508788
17,-2.5091601521569375
18,4.68564339623817
2,1, 1, 1, 0,18,30.00,45.00,Tuesday
7,-1.5499999999999999
8,0.0
9,0.0
10,0.0
11,0.0
12,0.0
13,0.0
14,4.336599150043725
15,-3.2786784860678988
16,3.756624848593617
17,-2.6522617593120119
18,4.642004977071961
2,1, 1, 1, 0,18,45.00,60.00,Tuesday
7,-1.7
8,0.0
9,0.0
10,0.0
11,0.0
12,0.0
13,0.0
14,4.29600782669448
15,-3.4306089914600657
16,3.7101355545754588
17,-2.7908485242843428
18,4.602380082538679
2,1, 1, 1, 0,19, 0.00,15.00,Tuesday
7,-1.825
8,0.0
9,0.0
10,0.0
11,0.0
12,0.0
13,0.0
14,4.281693627471362
15,-3.276408351934351
16,3.6758464961401389
17,-2.7894487314914615
18,4.568609907933047
2,1, 1, 1, 0,19,15.00,30.00,Tuesday
7,-1.9500000000000002
8,0.0
9,0.0
10,0.0
11,0.0
12,0.0
13,0.0
14,4.267825380248186
15,-3.2043304412825397
16,3.653368091599077
17,-2.815445663035007
18,4.542441797269767
2,1, 1, 1, 0,19,30.00,45.00,Tuesday
7,-2.075
8,0.0
9,0.0
10,0.0
11,0.0
12,0.0
13,0.0
14,4.24734367193981
15,-3.276667605855806
16,3.6273608197312798
17,-2.90698250588855
18,4.5220212589183979
2,1, 1, 1, 0,19,45.00,60.00,Tuesday
7,-2.2
8,0.0
9,0.0
10,0.0
11,0.0
12,0.0
13,0.0
14,4.231169206551538
15,-3.249771678558151
16,3.607294456515433
17,-2.951068701686836
18,4.504256180152714
2,1, 1, 1, 0,20, 0.00,15.00,Tuesday
7,-1.9250000000000003
8,0.0
9,0.0
10,0.0
11,0.0
12,0.0
13,0.0
14,4.230654547899662
15,-2.9474146540365955
16,3.6249353294999766
17,-2.684078987920657
18,4.488775495907236
2,1, 1, 1, 0,20,15.00,30.00,Tuesday
7,-1.6500000000000002
8,0.0
9,0.0
10,0.0
11,0.0
12,0.0
13,0.0
14,4.229941020233675
15,-2.648200153916936
16,3.6462445910193539
17,-2.4161497604529815
18,4.475769904676842
2,1, 1, 1, 0,20,30.00,45.00,Tuesday
7,-1.375
8,0.0
9,0.0
10,0.0
11,0.0
12,0.0
13,0.0
14,4.230611161168548
15,-2.3503053217913516
16,3.6685047594211257
17,-2.1480193960758244
18,4.46497589776997
2,1, 1, 1, 0,20,45.00,60.00,Tuesday
7,-1.1
8,0.0
9,0.0
10,0.0
11,0.0
12,0.0
13,0.0
14,4.233425529949665
15,-2.0537287203527279
16,3.6921192859704208
17,-1.8796592369407109
18,4.456026842260917
2,1, 1, 1, 0,21, 0.00,15.00,Tuesday
7,-1.25
8,0.0
9,0.0
10,0.0
11,0.0
12,0.0
13,0.0
14,4.191875244260364
15,-2.339457640796441
16,3.6585863906547049
17,-2.0860744823845609
18,4.442816841858067
2,1, 1, 1, 0,21,15.00,30.00,Tuesday
7,-1.4
8,0.0
9,0.0
10,0.0
11,0.0
12,0.0
13,0.0
14,4.152315469605143
15,-2.55836975549918
16,3.613095752941547
17,-2.2458115074873605
18,4.4207545989235899
2,1, 1, 1, 0,21,30.00,45.00,Tuesday
7,-1.5499999999999999
8,0.0
9,0.0
10,0.0
11,0.0
12,0.0
13,0.0
14,4.0989043494363879
15,-2.9087081210844576
16,3.555879281893965
17,-2.4759426047595527
18,4.388573671827754
2,1, 1, 1, 0,21,45.00,60.00,Tuesday
7,-1.7
8,0.0
9,0.0
10,0.0
11,0.0
12,0.0
13,0.0
14,4.040123796062023
15,-3.367474729095086
16,3.485630945143839
17,-2.7361137581115146
18,4.347981303614813
2,1, 1, 1, 0,22, 0.00,15.00,Tuesday
7,-1.5499999999999999
8,0.0
9,0.0
10,0.0
11,0.0
12,0.0
13,0.0
14,4.052044611761253
15,-2.8717616490991424
16,3.479778384504698
17,-2.4561018552018369
18,4.312564983598486
2,1, 1, 1, 0,22,15.00,30.00,Tuesday
7,-1.4
8,0.0
9,0.0
10,0.0
11,0.0
12,0.0
13,0.0
14,4.054723947799985
15,-2.536012059957291
16,3.498140061834988
17,-2.236382501349169
18,4.290020757326605
2,1, 1, 1, 0,22,30.00,45.00,Tuesday
7,-1.25
8,0.0
9,0.0
10,0.0
11,0.0
12,0.0
13,0.0
14,4.055445656150344
15,-2.313403859610628
16,3.512376045323549
17,-2.0743510282370609
18,4.2783657202056919
2,1, 1, 1, 0,22,45.00,60.00,Tuesday
7,-1.1
8,0.0
9,0.0
10,0.0
11,0.0
12,0.0
13,0.0
14,4.060053259979357
15,-2.0263947838260996
16,3.5322572747661526
17,-1.8589493625884189
18,4.272466753204742
2,1, 1, 1, 0,23, 0.00,15.00,Tuesday
7,-1.25
8,0.0
9,0.0
10,0.0
11,0.0
12,0.0
13,0.0
14,4.0192402950194598
15,-2.3298309301219084
16,3.488328774246611
17,-2.1713624420769976
18,4.262554210832073
2,1, 1, 1, 0,23,15.00,30.00,Tuesday
7,-1.4
8,0.0
9,0.0
10,0.0
11,0.0
12,0.0
13,0.0
14,3.9824718273634649
15,-2.63431714281208
16,3.4258214827191297
17,-2.4864469006023457
18,4.243522547182374
2,1, 1, 1, 0,23,30.00,45.00,Tuesday
7,-1.5499999999999999
8,0.0
9,0.0
10,0.0
11,0.0
12,0.0
13,0.0
14,3.939637428662413
15,-2.9394925938511546
16,3.3627155711286607
17,-2.8012154671740179
18,4.2158740093721909
2,1, 1, 1, 0,23,45.00,60.00,Tuesday
7,-1.7
8,0.0
9,0.0
10,0.0
11,0.0
12,0.0
13,0.0
14,3.8943427395981566
15,-3.2449250539107714
16,3.2952436079595488
17,-3.116107220507331
18,4.182143456343219
2,1, 1, 1, 0,24, 0.00,15.00,Tuesday
7,-1.7
8,0.0
9,0.0
10,0.0
11,0.0
12,0.0
13,0.0
14,3.865929505631565
15,-3.298764048341312
16,3.256379970904959
17,-3.1744878645794758
18,4.147398610982872
2,1, 1, 1, 0,24,15.00,30.00,Tuesday
7,-1.7
8,0.0
9,0.0
10,0.0
11,0.0
12,0.0
13,0.0
14,3.8344860826474904
15,-3.3533187997997837
16,3.222939515550479
17,-3.2357556589558955
18,4.114528518495017
2,1, 1, 1, 0,24,30.00,45.00,Tuesday
7,-1.7
8,0.0
9,0.0
10,0.0
11,0.0
12,0.0
13,0.0
14,3.8038147342687664
15,-3.407738205437086
16,3.188801194588052
17,-3.2972421003556748
18,4.083711980273314
2,1, 1, 1, 0,24,45.00,60.00,Tuesday
7,-1.7
8,0.0
9,0.0
10,0.0
11,0.0
12,0.0
13,0.0
14,3.773762368929786
15,-3.4621599070832147
16,3.1553571053804037
17,-3.3586060646213129
18,4.054162109803506
End of Data
 Number of Records Written=        1152
