Program Version,EnergyPlus, Version 9.5.0-de239b2e5f, YMD=2023.02.16 18:16
1,5,Environment Title[],Latitude[deg],Longitude[deg],Time Zone[],Elevation[m]
2,8,Day of Simulation[],Month[],Day of Month[],DST Indicator[1=yes 0=no],Hour[],StartMinute[],EndMinute[],DayType
3,5,Cumulative Day of Simulation[],Month[],Day of Month[],DST Indicator[1=yes 0=no],DayType  ! When Daily Report Variables Requested
4,2,Cumulative Days of Simulation[],Month[]  ! When Monthly Report Variables Requested
5,1,Cumulative Days of Simulation[] ! When Run Period Report Variables Requested
6,1,Calendar Year of Simulation[] ! When Annual Report Variables Requested
7,1,Environment,Site Outdoor Air Drybulb Temperature [C] !TimeStep
8,1,ZONE ONE,Zone Windows Total Transmitted Solar Radiation Rate [W] !TimeStep
9,1,ZN001:WALL001,Surface Outside Face Sunlit Fraction [] !TimeStep
10,1,ZN001:WALL001,Surface Outside Face Incident Solar Radiation Rate per Area [W/m2] !TimeStep
11,1,ZN001:WALL001:WIN001,Surface Outside Face Sunlit Fraction [] !TimeStep
12,1,ZN001:WALL001:WIN001,Surface Outside Face Incident Solar Radiation Rate per Area [W/m2] !TimeStep
13,1,ZN001:WALL001:WIN001,Surface Window Transmitted Solar Radiation Rate [W] !TimeStep
14,1,ZN001:WALL001,Surface Inside Face Temperature [C] !TimeStep
15,1,ZN001:WALL001,Surface Outside Face Temperature [C] !TimeStep
16,1,ZN001:WALL001:WIN001,Surface Inside Face Temperature [C] !TimeStep
17,1,ZN001:WALL001:WIN001,Surface Outside Face Temperature [C] !TimeStep
18,1,ZONE ONE,Zone Mean Air Temperature [C] !TimeStep
End of Data Dictionary
1,RUN PERIOD 1,  41.98, -87.92,  -6.00, 201.00
2,1, 1, 1, 0, 1, 0.00,15.00,Tuesday
7,-4.324999999999999
8,0.0
9,0.0
10,0.0
11,0.0
12,0.0
13,0.0
14,2.6812705708531765
15,-5.955066539136942
16,2.200751483574834
17,-5.8653383264370408
18,3.0734859462896297
2,1, 1, 1, 0, 1,15.00,30.00,Tuesday
7,-6.949999999999999
8,0.0
9,0.0
10,0.0
11,0.0
12,0.0
13,0.0
14,2.513208063876068
15,-8.422833924841534
16,1.894807911147268
17,-8.18956630675649
18,2.9982450304926306
2,1, 1, 1, 0, 1,30.00,45.00,Tuesday
7,-9.575
8,0.0
9,0.0
10,0.0
11,0.0
12,0.0
13,0.0
14,2.3284476736940409
15,-10.898622434305361
16,1.5861388634791638
17,-10.521280935089067
18,2.894707901845456
2,1, 1, 1, 0, 1,45.00,60.00,Tuesday
7,-12.2
8,0.0
9,0.0
10,0.0
11,0.0
12,0.0
13,0.0
14,2.1301519540322344
15,-13.38096706200573
16,1.2634144328081334
17,-12.861653899385204
18,2.770646442174524
2,1, 1, 1, 0, 2, 0.00,15.00,Tuesday
7,-12.075
8,0.0
9,0.0
10,0.0
11,0.0
12,0.0
13,0.0
14,2.0817241525089247
15,-13.182203301570139
16,1.1655873995784987
17,-12.723750809121953
18,2.6569953534191614
2,1, 1, 1, 0, 2,15.00,30.00,Tuesday
7,-11.95
8,0.0
9,0.0
10,0.0
11,0.0
12,0.0
13,0.0
14,2.0183461868891627
15,-13.004790003412932
16,1.1191036017691545
17,-12.53810498176756
18,2.5697562247037095
2,1, 1, 1, 0, 2,30.00,45.00,Tuesday
7,-11.825
8,0.0
9,0.0
10,0.0
11,0.0
12,0.0
13,0.0
14,1.969466136300849
15,-12.82628348503097
16,1.07664458354634
17,-12.360890394426065
18,2.5057450033866197
2,1, 1, 1, 0, 2,45.00,60.00,Tuesday
7,-11.7
8,0.0
9,0.0
10,0.0
11,0.0
12,0.0
13,0.0
14,1.9304272597757344
15,-12.64784052832627
16,1.045892829062609
17,-12.182912504644265
18,2.456140367991827
2,1, 1, 1, 0, 3, 0.00,15.00,Tuesday
7,-11.549999999999999
8,0.0
9,0.0
10,0.0
11,0.0
12,0.0
13,0.0
14,1.8923362726450835
15,-12.5228874051312
16,1.0195098441821529
17,-12.056355953282946
18,2.4130671231356115
2,1, 1, 1, 0, 3,15.00,30.00,Tuesday
7,-11.399999999999999
8,0.0
9,0.0
10,0.0
11,0.0
12,0.0
13,0.0
14,1.8573435275901227
15,-12.399344654768499
16,0.9936309512936532
17,-11.923760611504349
18,2.3723367875873855
2,1, 1, 1, 0, 3,30.00,45.00,Tuesday
7,-11.25
8,0.0
9,0.0
10,0.0
11,0.0
12,0.0
13,0.0
14,1.823189902996956
15,-12.277382036461646
16,0.9695312696143219
17,-11.791349826763906
18,2.332582404784825
2,1, 1, 1, 0, 3,45.00,60.00,Tuesday
7,-11.1
8,0.0
9,0.0
10,0.0
11,0.0
12,0.0
13,0.0
14,1.7894510009540297
15,-12.157062752709939
16,0.9460337329986714
17,-11.65964885263827
18,2.2935495120131668
2,1, 1, 1, 0, 4, 0.00,15.00,Tuesday
7,-11.1
8,0.0
9,0.0
10,0.0
11,0.0
12,0.0
13,0.0
14,1.7525205025038753
15,-12.126818551842792
16,0.9104890810803568
17,-11.645395456929578
18,2.254879066138759
2,1, 1, 1, 0, 4,15.00,30.00,Tuesday
7,-11.1
8,0.0
9,0.0
10,0.0
11,0.0
12,0.0
13,0.0
14,1.7160231765894063
15,-12.097733902912465
16,0.8757912570546296
17,-11.636452466474566
18,2.2163483708225737
2,1, 1, 1, 0, 4,30.00,45.00,Tuesday
7,-11.1
8,0.0
9,0.0
10,0.0
11,0.0
12,0.0
13,0.0
14,1.6795595885164539
15,-12.070264957909501
16,0.8413060402218093
17,-11.62809533942243
18,2.1778988070849074
2,1, 1, 1, 0, 4,45.00,60.00,Tuesday
7,-11.1
8,0.0
9,0.0
10,0.0
11,0.0
12,0.0
13,0.0
14,1.6431414052851015
15,-12.044282508458777
16,0.8068826157186777
17,-11.620088776961439
18,2.1395380594520385
2,1, 1, 1, 0, 5, 0.00,15.00,Tuesday
7,-10.975
8,0.0
9,0.0
10,0.0
11,0.0
12,0.0
13,0.0
14,1.6130457113120292
15,-11.922010698415589
16,0.7835430813308904
17,-11.512250200304948
18,2.1020828935810789
2,1, 1, 1, 0, 5,15.00,30.00,Tuesday
7,-10.85
8,0.0
9,0.0
10,0.0
11,0.0
12,0.0
13,0.0
14,1.5820794278897239
15,-11.799869461602006
16,0.7616018323783464
17,-11.398190282804308
18,2.065848680634745
2,1, 1, 1, 0, 5,30.00,45.00,Tuesday
7,-10.725
8,0.0
9,0.0
10,0.0
11,0.0
12,0.0
13,0.0
14,1.5519789371351787
15,-11.677674161158585
16,0.7398076256297372
17,-11.283751835821875
18,2.0306381052882567
2,1, 1, 1, 0, 5,45.00,60.00,Tuesday
7,-10.6
8,0.0
9,0.0
10,0.0
11,0.0
12,0.0
13,0.0
14,1.522527303518161
15,-11.555494296031233
16,0.7187235248558181
17,-11.169245359581965
18,1.9961795815587862
2,1, 1, 1, 0, 6, 0.00,15.00,Tuesday
7,-10.6
8,0.0
9,0.0
10,0.0
11,0.0
12,0.0
13,0.0
14,1.485005840031741
15,-11.556241416174954
16,0.6833143591188104
17,-11.167197087141347
18,1.9611273117246129
2,1, 1, 1, 0, 6,15.00,30.00,Tuesday
7,-10.6
8,0.0
9,0.0
10,0.0
11,0.0
12,0.0
13,0.0
14,1.4490822876701018
15,-11.55687772674902
16,0.6485464748956247
17,-11.168472203358988
18,1.9248644086133747
2,1, 1, 1, 0, 6,30.00,45.00,Tuesday
7,-10.6
8,0.0
9,0.0
10,0.0
11,0.0
12,0.0
13,0.0
14,1.4125492270993812
15,-11.557592222841198
16,0.6142029873443562
17,-11.170592350155176
18,1.8876456477113224
2,1, 1, 1, 0, 6,45.00,60.00,Tuesday
7,-10.6
8,0.0
9,0.0
10,0.0
11,0.0
12,0.0
13,0.0
14,1.3757115284722073
15,-11.5583017164793
16,0.5793960445003563
17,-11.173001366538188
18,1.8499143971962467
2,1, 1, 1, 0, 7, 0.00,15.00,Tuesday
7,-10.6
8,0.0
9,0.0
10,0.0
11,0.0
12,0.0
13,0.0
14,1.3410776066165154
15,-11.533376242756985
16,0.5461067852086217
17,-11.167077639959189
18,1.8123954570936645
2,1, 1, 1, 0, 7,15.00,30.00,Tuesday
7,-10.6
8,0.0
9,0.0
10,0.0
11,0.0
12,0.0
13,0.0
14,1.3063258538900598
15,-11.509739642317081
16,0.5158685579995108
17,-11.155280293029876
18,1.775421013502316
2,1, 1, 1, 0, 7,30.00,45.00,Tuesday
7,-10.6
8,0.0
9,0.0
10,0.0
11,0.0
12,0.0
13,0.0
14,1.2718126263776045
15,-11.487301475116434
16,0.48327780508168419
17,-11.146983125727502
18,1.738964806419488
2,1, 1, 1, 0, 7,45.00,60.00,Tuesday
7,-10.6
8,0.0
9,0.0
10,0.0
11,0.0
12,0.0
13,0.0
14,1.2375498199693598
15,-11.465991502834197
16,0.4482956382704515
17,-11.142404161586
18,1.7029165825461086
2,1, 1, 1, 0, 8, 0.00,15.00,Tuesday
7,-10.45
8,0.0
9,0.0
10,0.0
11,0.0
12,0.0
13,0.0
14,1.2023087758548863
15,-11.417755457525799
16,0.42203874544645716
17,-11.102988375971109
18,1.666577899413118
2,1, 1, 1, 0, 8,15.00,30.00,Tuesday
7,-10.3
8,71.56792871975249
9,1.0
10,22.819555959623899
11,1.0
12,22.819555959623899
13,71.56792871975249
14,1.2700831047918562
15,-9.744951776726884
16,0.8390284350985553
17,-10.74196999112587
18,1.6443895717875053
2,1, 1, 1, 0, 8,30.00,45.00,Tuesday
7,-10.15
8,354.0299290602728
9,1.0
10,109.75755355442667
11,1.0
12,109.75755355442667
13,354.0299290602728
14,1.6174488747476997
15,-3.3838694758904674
16,2.6286633519031286
17,-9.433339446663752
18,1.6749896798123228
2,1, 1, 1, 0, 8,45.00,60.00,Tuesday
7,-10.0
8,650.8026061160458
9,1.0
10,195.8764694434918
11,1.0
12,195.8764694434918
13,650.8026061160458
14,2.0393445183658835
15,3.1007560119553116
16,4.2771862203678669
17,-8.132983325594808
18,1.7685521010619414
2,1, 1, 1, 0, 9, 0.00,15.00,Tuesday
7,-9.725
8,953.3043628211269
9,1.0
10,278.97248314719988
11,1.0
12,278.97248314719988
13,953.3043628211269
14,2.3904728922724969
15,8.288176105474788
16,5.783423838589101
17,-7.011315435399581
18,1.9157599931733827
2,1, 1, 1, 0, 9,15.00,30.00,Tuesday
7,-9.45
8,1278.5481108613147
9,1.0
10,364.91995730569456
11,1.0
12,364.91995730569456
13,1278.5481108613147
14,2.7748208458094005
15,13.365226989426743
16,7.284120996772515
17,-5.912176683225653
18,2.1023432506829526
2,1, 1, 1, 0, 9,30.00,45.00,Tuesday
7,-9.175
8,1501.6689651177185
9,1.0
10,420.35879993239237
11,1.0
12,420.35879993239237
13,1501.6689651177185
14,3.0278067643049195
15,16.124180114791618
16,8.29374891174831
17,-5.25304874687788
18,2.308531917706128
2,1, 1, 1, 0, 9,45.00,60.00,Tuesday
7,-8.9
8,1735.1383193393602
9,1.0
10,478.00138373643099
11,1.0
12,478.00138373643099
13,1735.1383193393602
14,3.3279948028906247
15,19.11937842983504
16,9.297785881094683
17,-4.563138880717645
18,2.527204127349078
2,1, 1, 1, 0,10, 0.00,15.00,Tuesday
7,-8.350000000000002
8,1975.0591100537159
9,1.0
10,536.9185644770597
11,1.0
12,536.9185644770597
13,1975.0591100537159
14,3.568435843109141
15,20.238460230495354
16,10.335649870835426
17,-3.7560507958698965
18,2.7624646940805155
2,1, 1, 1, 0,10,15.00,30.00,Tuesday
7,-7.800000000000001
8,2223.9470947223846
9,1.0
10,598.0969199229219
11,1.0
12,598.0969199229219
13,2223.9470947223846
14,3.834574200950068
15,21.49277985096246
16,11.402242243704564
17,-2.9719495551705679
18,3.0117077274080605
2,1, 1, 1, 0,10,30.00,45.00,Tuesday
7,-7.25
8,2391.940481956653
9,1.0
10,637.6133352894237
11,1.0
12,637.6133352894237
13,2391.940481956653
14,4.032052241424364
15,21.553562484954268
16,12.159000480387249
17,-2.4343255110525208
18,3.260739303186647
2,1, 1, 1, 0,10,45.00,60.00,Tuesday
7,-6.7
8,2557.310342406259
9,1.0
10,676.6412284283772
11,1.0
12,676.6412284283772
13,2557.310342406259
14,4.2454186335721328
15,21.714611621440825
16,12.884662458223716
17,-1.8735289088885452
18,3.501144253503295
2,1, 1, 1, 0,11, 0.00,15.00,Tuesday
7,-6.275
8,2719.427216426026
9,1.0
10,715.0112779846514
11,1.0
12,715.0112779846514
13,2719.427216426026
14,4.534982619792973
15,23.81205812119886
16,13.610316295304756
17,-1.1439808367661045
18,3.736212400328632
2,1, 1, 1, 0,11,15.00,30.00,Tuesday
7,-5.85
8,2877.417086129279
9,1.0
10,752.5077794605232
11,1.0
12,752.5077794605232
13,2877.417086129279
14,4.810033437357736
15,25.746748865330607
16,14.323532889923968
17,-0.4269195658591798
18,3.9707559786989456
2,1, 1, 1, 0,11,30.00,45.00,Tuesday
7,-5.425
8,2835.5349808371727
9,1.0
10,742.5988714321785
11,1.0
12,742.5988714321785
13,2835.5349808371727
14,4.961293726603906
15,25.598319616861315
16,14.391776155834919
17,-0.12515465594003673
18,4.1898332096826469
2,1, 1, 1, 0,11,45.00,60.00,Tuesday
7,-5.0
8,2772.923910988253
9,1.0
10,727.8169025450712
11,1.0
12,727.8169025450712
13,2772.923910988253
14,5.108161087924028
15,25.368767545565967
16,14.362864534050346
17,0.14499659854186576
18,4.383129204516701
2,1, 1, 1, 0,12, 0.00,15.00,Tuesday
7,-4.575
8,2664.822954671648
9,1.0
10,700.3759009170325
11,1.0
12,700.3759009170325
13,2664.822954671648
14,5.205210393257355
15,24.62584134748319
16,14.149351283503336
17,0.35247046970459908
18,4.545783571162838
2,1, 1, 1, 0,12,15.00,30.00,Tuesday
7,-4.15
8,2580.894828475442
9,1.0
10,681.6705029034473
11,1.0
12,681.6705029034473
13,2580.894828475442
14,5.321209048135605
15,24.295120006858136
16,14.042473312885932
17,0.6387014476225659
18,4.6848472872216269
2,1, 1, 1, 0,12,30.00,45.00,Tuesday
7,-3.7249999999999998
8,2259.3077124563117
9,1.0
10,602.01865277251
11,1.0
12,602.01865277251
13,2259.3077124563117
14,5.228932752749849
15,21.26647429818546
16,13.090036211621737
17,0.4195407774757314
18,4.783388591836156
2,1, 1, 1, 0,12,45.00,60.00,Tuesday
7,-3.3
8,1841.4287184027517
9,1.0
10,493.55004396206007
11,1.0
12,493.55004396206007
13,1841.4287184027517
14,5.038109382400727
15,17.087505640390526
16,11.622179282240723
17,-0.06514250490931772
18,4.82538787507124
2,1, 1, 1, 0,13, 0.00,15.00,Tuesday
7,-3.0249999999999996
8,1510.1870283450449
9,1.0
10,412.335026418112
11,1.0
12,412.335026418112
13,1510.1870283450449
14,4.910738572300344
15,14.242378972156109
16,10.47550631779825
17,-0.3858664421742901
18,4.816915091978862
2,1, 1, 1, 0,13,15.00,30.00,Tuesday
7,-2.75
8,1097.5186598189753
9,1.0
10,305.94037763660148
11,1.0
12,305.94037763660148
13,1097.5186598189753
14,4.653227706955007
15,10.066895436163226
16,8.905025527863586
17,-0.9502811778169189
18,4.760673265601769
2,1, 1, 1, 0,13,30.00,45.00,Tuesday
7,-2.475
8,997.8347210574955
9,1.0
10,281.0763483922329
11,1.0
12,281.0763483922329
13,997.8347210574955
14,4.631718366080882
15,9.557784572442062
16,8.501165851990436
17,-0.820150675077457
18,4.692942730759983
2,1, 1, 1, 0,13,45.00,60.00,Tuesday
7,-2.2
8,900.1994191962868
9,1.0
10,256.7721209415886
11,1.0
12,256.7721209415886
13,900.1994191962868
14,4.5944086765512239
15,8.94964411642882
16,8.151201854919123
17,-0.6676705289776805
18,4.637827704775144
2,1, 1, 1, 0,14, 0.00,15.00,Tuesday
7,-1.9250000000000003
8,732.8655907144981
9,1.0
10,210.73276284570657
11,1.0
12,210.73276284570657
13,732.8655907144981
14,4.486021954433032
15,7.400639989714137
16,7.432092550549839
17,-0.7638061737459339
18,4.589604517856888
2,1, 1, 1, 0,14,15.00,30.00,Tuesday
7,-1.6500000000000002
8,646.3774883140063
9,1.0
10,189.38488290342594
11,1.0
12,189.38488290342594
13,646.3774883140063
14,4.464159088116362
15,6.99666634423586
16,7.086654190151876
17,-0.6472095234148014
18,4.548095167814591
2,1, 1, 1, 0,14,30.00,45.00,Tuesday
7,-1.375
8,617.9858986324632
9,1.0
10,179.3940297802914
11,1.0
12,179.3940297802914
13,617.9858986324632
14,4.460956522855373
15,7.1163696229724879
16,6.937026883989802
17,-0.42378490805504046
18,4.515408519631204
2,1, 1, 1, 0,14,45.00,60.00,Tuesday
7,-1.1
8,588.6932238625436
9,1.0
10,169.43349014176136
11,1.0
12,169.43349014176136
13,588.6932238625436
14,4.457257294270015
15,7.214180169583068
16,6.786399920888357
17,-0.20064091571703103
18,4.490586309609888
2,1, 1, 1, 0,15, 0.00,15.00,Tuesday
7,-1.1
8,618.6771475466255
9,1.0
10,178.15692317953907
11,1.0
12,178.15692317953907
13,618.6771475466255
14,4.502382044119475
15,8.029898252628762
16,6.927885541947603
17,-0.07894616639293872
18,4.47650535802983
2,1, 1, 1, 0,15,15.00,30.00,Tuesday
7,-1.1
8,581.0506986351386
9,1.0
10,166.40516310952945
11,1.0
12,166.40516310952945
13,581.0506986351386
14,4.4693782654016289
15,7.66597399451379
16,6.73851050988992
17,-0.1685089793608654
18,4.465404173331376
2,1, 1, 1, 0,15,30.00,45.00,Tuesday
7,-1.1
8,487.62380365139259
9,1.0
10,140.8967369711617
11,1.0
12,140.8967369711617
13,487.62380365139259
14,4.373893016459419
15,6.453633972924075
16,6.2956685331288899
17,-0.4435109011186569
18,4.445196151818344
2,1, 1, 1, 0,15,45.00,60.00,Tuesday
7,-1.1
8,399.16345704405486
9,1.0
10,116.57355796743004
11,1.0
12,116.57355796743004
13,399.16345704405486
14,4.286852942976739
15,5.24977713607372
16,5.84829618937556
17,-0.7233426456368761
18,4.409663619567121
2,1, 1, 1, 0,16, 0.00,15.00,Tuesday
7,-1.1
8,315.01856693619978
9,1.0
10,93.14939272689483
11,1.0
12,93.14939272689483
13,315.01856693619978
14,4.201557348326077
15,4.19412419018557
16,5.405373135466618
17,-0.9372114868244807
18,4.359858381393952
2,1, 1, 1, 0,16,15.00,30.00,Tuesday
7,-1.1
8,194.46754305814083
9,1.0
10,57.94047897402063
11,1.0
12,57.94047897402063
13,194.46754305814083
14,4.042126956014201
15,2.0658929859493067
16,4.711138972360175
17,-1.3549262363641788
18,4.292079267923172
2,1, 1, 1, 0,16,30.00,45.00,Tuesday
7,-1.1
8,149.82451960460407
9,1.0
10,45.38251793443488
11,1.0
12,45.38251793443488
13,149.82451960460407
14,3.9792798580467059
15,1.4495404965754136
16,4.39873886291798
17,-1.4851436189040897
18,4.215609865339557
2,1, 1, 1, 0,16,45.00,60.00,Tuesday
7,-1.1
8,104.00572991011612
9,1.0
10,32.02625108222755
11,1.0
12,32.02625108222755
13,104.00572991011612
14,3.885824466903962
15,0.5803781458644005
16,4.077495003012984
17,-1.6456974028042169
18,4.137757597104309
2,1, 1, 1, 0,17, 0.00,15.00,Tuesday
7,-1.1
8,56.8254897678188
9,1.0
10,17.762198626050539
11,1.0
12,17.762198626050539
13,56.8254897678188
14,3.765503965846634
15,-0.6791901566983262
16,3.723676933919023
17,-1.9479347328781387
18,4.055778533054819
2,1, 1, 1, 0,17,15.00,30.00,Tuesday
7,-1.1
8,0.0
9,0.0
10,0.0
11,0.0
12,0.0
13,0.0
14,3.5986326355005615
15,-2.519981080997834
16,3.3033308109949077
17,-2.261545063457163
18,3.959862021350817
2,1, 1, 1, 0,17,30.00,45.00,Tuesday
7,-1.1
8,0.0
9,0.0
10,0.0
11,0.0
12,0.0
13,0.0
14,3.550122321034488
15,-2.659824607667181
16,3.205668190980532
17,-2.344704414330181
18,3.8650349155899486
2,1, 1, 1, 0,17,45.00,60.00,Tuesday
7,-1.1
8,0.0
9,0.0
10,0.0
11,0.0
12,0.0
13,0.0
14,3.487977098788057
15,-2.857363653005942
16,3.146519637871677
17,-2.44322512446314
18,3.784966321744881
2,1, 1, 1, 0,18, 0.00,15.00,Tuesday
7,-1.25
8,0.0
9,0.0
10,0.0
11,0.0
12,0.0
13,0.0
14,3.437450306330773
15,-3.004323664114755
16,3.0779870570084997
17,-2.5971416568780798
18,3.7220168663570765
2,1, 1, 1, 0,18,15.00,30.00,Tuesday
7,-1.4
8,0.0
9,0.0
10,0.0
11,0.0
12,0.0
13,0.0
14,3.392196141975622
15,-3.1566239798466255
16,3.028156709369398
17,-2.7384636445660819
18,3.672147874056042
2,1, 1, 1, 0,18,30.00,45.00,Tuesday
7,-1.5499999999999999
8,0.0
9,0.0
10,0.0
11,0.0
12,0.0
13,0.0
14,3.35249432813698
15,-3.3083320735924457
16,2.978257328137147
17,-2.8840362417051894
18,3.630420925820891
2,1, 1, 1, 0,18,45.00,60.00,Tuesday
7,-1.7
8,0.0
9,0.0
10,0.0
11,0.0
12,0.0
13,0.0
14,3.3143204397266836
15,-3.460273403971497
16,2.9320632322338158
17,-3.0290285894188857
18,3.5931783567300856
2,1, 1, 1, 0,19, 0.00,15.00,Tuesday
7,-1.825
8,0.0
9,0.0
10,0.0
11,0.0
12,0.0
13,0.0
14,3.3031534468124437
15,-3.3026522665820088
16,2.9008848940858344
17,-3.008080373661471
18,3.562004164042994
2,1, 1, 1, 0,19,15.00,30.00,Tuesday
7,-1.9500000000000002
8,0.0
9,0.0
10,0.0
11,0.0
12,0.0
13,0.0
14,3.291541658720242
15,-3.2275737249759328
16,2.879710524218524
17,-3.0183286985685529
18,3.5384402138393278
2,1, 1, 1, 0,19,30.00,45.00,Tuesday
7,-2.075
8,0.0
9,0.0
10,0.0
11,0.0
12,0.0
13,0.0
14,3.2752648343726995
15,-3.2990421352228447
16,2.8618708446892926
17,-3.1069909331221767
18,3.520812274202462
2,1, 1, 1, 0,19,45.00,60.00,Tuesday
7,-2.2
8,0.0
9,0.0
10,0.0
11,0.0
12,0.0
13,0.0
14,3.2623416095222095
15,-3.269540733783006
16,2.8471613471219827
17,-3.1360761991455776
18,3.5061088228480696
2,1, 1, 1, 0,20, 0.00,15.00,Tuesday
7,-1.9250000000000003
8,0.0
9,0.0
10,0.0
11,0.0
12,0.0
13,0.0
14,3.2648966912848009
15,-2.966513432634574
16,2.862391865489599
17,-2.859007413656286
18,3.493727185781746
2,1, 1, 1, 0,20,15.00,30.00,Tuesday
7,-1.6500000000000002
8,0.0
9,0.0
10,0.0
11,0.0
12,0.0
13,0.0
14,3.267417030514557
15,-2.666692142854701
16,2.8816849329892877
17,-2.583115617933572
18,3.483724716533428
2,1, 1, 1, 0,20,30.00,45.00,Tuesday
7,-1.375
8,0.0
9,0.0
10,0.0
11,0.0
12,0.0
13,0.0
14,3.27117944228875
15,-2.368229652874474
16,2.9019125807099614
17,-2.307335249991638
18,3.4758276486998844
2,1, 1, 1, 0,20,45.00,60.00,Tuesday
7,-1.1
8,0.0
9,0.0
10,0.0
11,0.0
12,0.0
13,0.0
14,3.276133567351394
15,-2.071110579518932
16,2.923388374876481
17,-2.0316411556364075
18,3.469605672891788
2,1, 1, 1, 0,21, 0.00,15.00,Tuesday
7,-1.25
8,0.0
9,0.0
10,0.0
11,0.0
12,0.0
13,0.0
14,3.238435350295724
15,-2.3595383727015735
16,2.894501662539369
17,-2.2584861810108807
18,3.4593841452851894
2,1, 1, 1, 0,21,15.00,30.00,Tuesday
7,-1.4
8,0.0
9,0.0
10,0.0
11,0.0
12,0.0
13,0.0
14,3.20004338704003
15,-2.5799636191541457
16,2.854434013254604
17,-2.4279900672306669
18,3.4405208747172324
2,1, 1, 1, 0,21,30.00,45.00,Tuesday
7,-1.5499999999999999
8,0.0
9,0.0
10,0.0
11,0.0
12,0.0
13,0.0
14,3.1489090572049949
15,-2.9338113752489138
16,2.7998064443856949
17,-2.6815231231358895
18,3.411536960012267
2,1, 1, 1, 0,21,45.00,60.00,Tuesday
7,-1.7
8,0.0
9,0.0
10,0.0
11,0.0
12,0.0
13,0.0
14,3.0924204727583706
15,-3.396641862214002
16,2.7337792378890528
17,-2.9674457020712454
18,3.3740282235234297
2,1, 1, 1, 0,22, 0.00,15.00,Tuesday
7,-1.5499999999999999
8,0.0
9,0.0
10,0.0
11,0.0
12,0.0
13,0.0
14,3.1073804929274719
15,-2.896097369131439
16,2.727005002944452
17,-2.6546438926631028
18,3.3413399966204486
2,1, 1, 1, 0,22,15.00,30.00,Tuesday
7,-1.4
8,0.0
9,0.0
10,0.0
11,0.0
12,0.0
13,0.0
14,3.1136367327266316
15,-2.557049888034119
16,2.745908040497966
17,-2.4133482749089696
18,3.321247154173413
2,1, 1, 1, 0,22,30.00,45.00,Tuesday
7,-1.25
8,0.0
9,0.0
10,0.0
11,0.0
12,0.0
13,0.0
14,3.1176267471885596
15,-2.332973219910079
16,2.76000355083454
17,-2.234537073377396
18,3.311990850803622
2,1, 1, 1, 0,22,45.00,60.00,Tuesday
7,-1.1
8,0.0
9,0.0
10,0.0
11,0.0
12,0.0
13,0.0
14,3.125410066348879
15,-2.0433159476972464
16,2.7808366890294566
17,-2.0067485485385534
18,3.3086321269441907
2,1, 1, 1, 0,23, 0.00,15.00,Tuesday
7,-1.25
8,0.0
9,0.0
10,0.0
11,0.0
12,0.0
13,0.0
14,3.0886122390220249
15,-2.346836296305956
16,2.7457343428019387
17,-2.324554681550808
18,3.3018279544560027
2,1, 1, 1, 0,23,15.00,30.00,Tuesday
7,-1.4
8,0.0
9,0.0
10,0.0
11,0.0
12,0.0
13,0.0
14,3.053154317320092
15,-2.6513607271748964
16,2.691581497349148
17,-2.6431983594699206
18,3.2862596060004707
2,1, 1, 1, 0,23,30.00,45.00,Tuesday
7,-1.5499999999999999
8,0.0
9,0.0
10,0.0
11,0.0
12,0.0
13,0.0
14,3.013158217264342
15,-2.9564470887884659
16,2.636074039253174
17,-2.96159478470679
18,3.2621264656424
2,1, 1, 1, 0,23,45.00,60.00,Tuesday
7,-1.7
8,0.0
9,0.0
10,0.0
11,0.0
12,0.0
13,0.0
14,2.9706618085106366
15,-3.2618473932047218
16,2.5767409696883307
17,-3.2800079083131097
18,3.2318282963936615
2,1, 1, 1, 0,24, 0.00,15.00,Tuesday
7,-1.7
8,0.0
9,0.0
10,0.0
11,0.0
12,0.0
13,0.0
14,2.9452089837521484
15,-3.3155985345506435
16,2.5414415878697129
17,-3.337645022006768
18,3.200299807324969
2,1, 1, 1, 0,24,15.00,30.00,Tuesday
7,-1.7
8,0.0
9,0.0
10,0.0
11,0.0
12,0.0
13,0.0
14,2.916738208919436
15,-3.3701020476867824
16,2.511506107927744
17,-3.3990106379674218
18,3.170445161254965
2,1, 1, 1, 0,24,30.00,45.00,Tuesday
7,-1.7
8,0.0
9,0.0
10,0.0
11,0.0
12,0.0
13,0.0
14,2.888933712850622
15,-3.4244735816435636
16,2.480810985453786
17,-3.4605882428176075
18,3.1425331905058377
2,1, 1, 1, 0,24,45.00,60.00,Tuesday
7,-1.7
8,0.0
9,0.0
10,0.0
11,0.0
12,0.0
13,0.0
14,2.8616951161810939
15,-3.478846303498637
16,2.450722498679852
17,-3.522065885676625
18,3.115850873551249
End of Data
 Number of Records Written=        1152
