Program Version,EnergyPlus, Version 9.5.0-de239b2e5f, YMD=2023.02.16 18:15
1,5,Environment Title[],Latitude[deg],Longitude[deg],Time Zone[],Elevation[m]
2,8,Day of Simulation[],Month[],Day of Month[],DST Indicator[1=yes 0=no],Hour[],StartMinute[],EndMinute[],DayType
3,5,Cumulative Day of Simulation[],Month[],Day of Month[],DST Indicator[1=yes 0=no],DayType  ! When Daily Report Variables Requested
4,2,Cumulative Days of Simulation[],Month[]  ! When Monthly Report Variables Requested
5,1,Cumulative Days of Simulation[] ! When Run Period Report Variables Requested
6,1,Calendar Year of Simulation[] ! When Annual Report Variables Requested
7,1,Environment,Site Outdoor Air Drybulb Temperature [C] !TimeStep
8,1,ZONE ONE,Zone Windows Total Transmitted Solar Radiation Rate [W] !TimeStep
9,1,ZN001:WALL001,Surface Outside Face Sunlit Fraction [] !TimeStep
10,1,ZN001:WALL001,Surface Outside Face Incident Solar Radiation Rate per Area [W/m2] !TimeStep
11,1,ZN001:WALL001:WIN001,Surface Outside Face Sunlit Fraction [] !TimeStep
12,1,ZN001:WALL001:WIN001,Surface Outside Face Incident Solar Radiation Rate per Area [W/m2] !TimeStep
13,1,ZN001:WALL001:WIN001,Surface Window Transmitted Solar Radiation Rate [W] !TimeStep
14,1,ZN001:WALL001,Surface Inside Face Temperature [C] !TimeStep
15,1,ZN001:WALL001,Surface Outside Face Temperature [C] !TimeStep
16,1,ZN001:WALL001:WIN001,Surface Inside Face Temperature [C] !TimeStep
17,1,ZN001:WALL001:WIN001,Surface Outside Face Temperature [C] !TimeStep
18,1,ZONE ONE,Zone Mean Air Temperature [C] !TimeStep
End of Data Dictionary
1,RUN PERIOD 1,  41.98, -87.92,  -6.00, 201.00
2,1, 1, 1, 0, 1, 0.00,15.00,Tuesday
7,-4.324999999999999
8,0.0
9,0.0
10,0.0
11,0.0
12,0.0
13,0.0
14,0.5620605426623352
15,-5.993835958701867
16,0.22932179145965393
17,-6.030861933191659
18,0.8919247109742843
2,1, 1, 1, 0, 1,15.00,30.00,Tuesday
7,-6.949999999999999
8,0.0
9,0.0
10,0.0
11,0.0
12,0.0
13,0.0
14,0.39641407050342078
15,-8.461778685752043
16,-0.06991195383437798
17,-8.362478073944658
18,0.823293197619579
2,1, 1, 1, 0, 1,30.00,45.00,Tuesday
7,-9.575
8,0.0
9,0.0
10,0.0
11,0.0
12,0.0
13,0.0
14,0.2144895155710123
15,-10.938012212059088
16,-0.36997522411809316
17,-10.70130580467054
18,0.7258434687066361
2,1, 1, 1, 0, 1,45.00,60.00,Tuesday
7,-12.2
8,0.0
9,0.0
10,0.0
11,0.0
12,0.0
13,0.0
14,0.019235955476245557
15,-13.420777495969272
16,-0.6836194889078229
17,-13.049041525515861
18,0.6070485186557587
2,1, 1, 1, 0, 2, 0.00,15.00,Tuesday
7,-12.075
8,0.0
9,0.0
10,0.0
11,0.0
12,0.0
13,0.0
14,-0.022960444923034615
15,-13.222333052111753
16,-0.7773065108174251
17,-12.9072821482996
18,0.4977412227202295
2,1, 1, 1, 0, 2,15.00,30.00,Tuesday
7,-11.95
8,0.0
9,0.0
10,0.0
11,0.0
12,0.0
13,0.0
14,-0.08074202023915411
15,-13.044804995908802
16,-0.8188644321398328
17,-12.720368526662469
18,0.41438242348426326
2,1, 1, 1, 0, 2,30.00,45.00,Tuesday
7,-11.825
8,0.0
9,0.0
10,0.0
11,0.0
12,0.0
13,0.0
14,-0.1242795392311935
15,-12.866167211172268
16,-0.8567908349442632
17,-12.542193443789245
18,0.354386123649251
2,1, 1, 1, 0, 2,45.00,60.00,Tuesday
7,-11.7
8,0.0
9,0.0
10,0.0
11,0.0
12,0.0
13,0.0
14,-0.15795693132484629
15,-12.687583689262923
16,-0.8831005605838982
17,-12.363293160251601
18,0.3092472208901445
2,1, 1, 1, 0, 3, 0.00,15.00,Tuesday
7,-11.549999999999999
8,0.0
9,0.0
10,0.0
11,0.0
12,0.0
13,0.0
14,-0.19073183491366647
15,-12.563594964954693
16,-0.9052307088830958
17,-12.239086754296295
18,0.2711123831777084
2,1, 1, 1, 0, 3,15.00,30.00,Tuesday
7,-11.399999999999999
8,0.0
9,0.0
10,0.0
11,0.0
12,0.0
13,0.0
14,-0.21929130201956779
15,-12.441054794418621
16,-0.92671011633729
17,-12.10898177073102
18,0.23577967506438803
2,1, 1, 1, 0, 3,30.00,45.00,Tuesday
7,-11.25
8,0.0
9,0.0
10,0.0
11,0.0
12,0.0
13,0.0
14,-0.24786530154028994
15,-12.320178230312632
16,-0.9459047033508341
17,-11.979132050453245
18,0.20169027130173518
2,1, 1, 1, 0, 3,45.00,60.00,Tuesday
7,-11.1
8,0.0
9,0.0
10,0.0
11,0.0
12,0.0
13,0.0
14,-0.2758560764148813
15,-12.200956403621591
16,-0.9647133158682664
17,-11.8500970248395
18,0.16840645994852569
2,1, 1, 1, 0, 4, 0.00,15.00,Tuesday
7,-11.1
8,0.0
9,0.0
10,0.0
11,0.0
12,0.0
13,0.0
14,-0.30691972623179716
15,-12.169351179883764
16,-0.9944886765305228
17,-11.83206715212782
18,0.1355323064679919
2,1, 1, 1, 0, 4,15.00,30.00,Tuesday
7,-11.1
8,0.0
9,0.0
10,0.0
11,0.0
12,0.0
13,0.0
14,-0.3376039327388645
15,-12.138961844438969
16,-1.023439786630945
17,-11.818934945619845
18,0.10283858720752957
2,1, 1, 1, 0, 4,30.00,45.00,Tuesday
7,-11.1
8,0.0
9,0.0
10,0.0
11,0.0
12,0.0
13,0.0
14,-0.36827631898274007
15,-12.1102502682861
16,-1.0545290335113578
17,-11.810539260597693
18,0.07027560044063383
2,1, 1, 1, 0, 4,45.00,60.00,Tuesday
7,-11.1
8,0.0
9,0.0
10,0.0
11,0.0
12,0.0
13,0.0
14,-0.3988616257009743
15,-12.083086712324466
16,-1.082886103758483
17,-11.799388618515536
18,0.03781542779327882
2,1, 1, 1, 0, 5, 0.00,15.00,Tuesday
7,-10.975
8,0.0
9,0.0
10,0.0
11,0.0
12,0.0
13,0.0
14,-0.42410964751745647
15,-11.960668910261817
16,-1.0991231445937047
17,-11.685607506427118
18,0.006072076078713436
2,1, 1, 1, 0, 5,15.00,30.00,Tuesday
7,-10.85
8,0.0
9,0.0
10,0.0
11,0.0
12,0.0
13,0.0
14,-0.4492277259202114
15,-11.83836226601147
16,-1.1162844076463899
17,-11.570274395816398
18,-0.024578189464594188
2,1, 1, 1, 0, 5,30.00,45.00,Tuesday
7,-10.725
8,0.0
9,0.0
10,0.0
11,0.0
12,0.0
13,0.0
14,-0.47363736139950859
15,-11.716043830633938
16,-1.133001415311071
17,-11.454814724465848
18,-0.054208899587085069
2,1, 1, 1, 0, 5,45.00,60.00,Tuesday
7,-10.6
8,0.0
9,0.0
10,0.0
11,0.0
12,0.0
13,0.0
14,-0.49740466803121566
15,-11.593735950708386
16,-1.1490636381944342
17,-11.339315295613574
18,-0.08304421171309963
2,1, 1, 1, 0, 6, 0.00,15.00,Tuesday
7,-10.6
8,0.0
9,0.0
10,0.0
11,0.0
12,0.0
13,0.0
14,-0.5283318158844025
15,-11.594397175860298
16,-1.1789482906036142
17,-11.336716351366647
18,-0.11228803365528738
2,1, 1, 1, 0, 6,15.00,30.00,Tuesday
7,-10.6
8,0.0
9,0.0
10,0.0
11,0.0
12,0.0
13,0.0
14,-0.5587688858193937
15,-11.594964285263539
16,-1.2081090675288806
17,-11.337475267319519
18,-0.14263507707120633
2,1, 1, 1, 0, 6,30.00,45.00,Tuesday
7,-10.6
8,0.0
9,0.0
10,0.0
11,0.0
12,0.0
13,0.0
14,-0.5896410423747068
15,-11.595566281528538
16,-1.2372324108388285
17,-11.33912714265955
18,-0.173961885471686
2,1, 1, 1, 0, 6,45.00,60.00,Tuesday
7,-10.6
8,0.0
9,0.0
10,0.0
11,0.0
12,0.0
13,0.0
14,-0.6208449545437927
15,-11.596170347895779
16,-1.2667338754638423
17,-11.341047484452702
18,-0.20587711853551952
2,1, 1, 1, 0, 7, 0.00,15.00,Tuesday
7,-10.6
8,0.0
9,0.0
10,0.0
11,0.0
12,0.0
13,0.0
14,-0.6498152217778489
15,-11.570147465659373
16,-1.2943162487383689
17,-11.332282581806908
18,-0.23765392099033559
2,1, 1, 1, 0, 7,15.00,30.00,Tuesday
7,-10.6
8,0.0
9,0.0
10,0.0
11,0.0
12,0.0
13,0.0
14,-0.6789276257837235
15,-11.545469646190865
16,-1.3212932996510745
17,-11.321214686574138
18,-0.2689038223282895
2,1, 1, 1, 0, 7,30.00,45.00,Tuesday
7,-10.6
8,0.0
9,0.0
10,0.0
11,0.0
12,0.0
13,0.0
14,-0.7078010479260426
15,-11.522042172983137
16,-1.3483920784440216
17,-11.309917010973436
18,-0.2996489627932978
2,1, 1, 1, 0, 7,45.00,60.00,Tuesday
7,-10.6
8,0.0
9,0.0
10,0.0
11,0.0
12,0.0
13,0.0
14,-0.7364065714731763
15,-11.499789133835464
16,-1.3752675464467075
17,-11.298839906658714
18,-0.3300290790534387
2,1, 1, 1, 0, 8, 0.00,15.00,Tuesday
7,-10.45
8,0.0
9,0.0
10,0.0
11,0.0
12,0.0
13,0.0
14,-0.7661441985552101
15,-11.452302475263782
16,-1.3973546773933095
17,-11.259178985095105
18,-0.36071938766659319
2,1, 1, 1, 0, 8,15.00,30.00,Tuesday
7,-10.3
8,43.92919895502562
9,1.0
10,22.819555959623899
11,1.0
12,22.819555959623899
13,43.92919895502562
14,-0.6991812262371487
15,-9.77981946905268
16,-0.9981872824795914
17,-10.924904345421567
18,-0.3792893314115665
2,1, 1, 1, 0, 8,30.00,45.00,Tuesday
7,-10.15
8,217.30754917639187
9,1.0
10,109.75755355442667
11,1.0
12,109.75755355442667
13,217.30754917639187
14,-0.3675839194234807
15,-3.4244048695678028
16,0.6941991058321264
17,-9.711064543958287
18,-0.35223227068067117
2,1, 1, 1, 0, 8,45.00,60.00,Tuesday
7,-10.0
8,399.4699535945363
9,1.0
10,195.8764694434918
11,1.0
12,195.8764694434918
13,399.4699535945363
14,0.04689013815734385
15,3.078120855960187
16,2.2608431323399147
17,-8.473713202053432
18,-0.2700932231130355
2,1, 1, 1, 0, 9, 0.00,15.00,Tuesday
7,-9.725
8,585.1489314874541
9,1.0
10,278.97248314719988
11,1.0
12,278.97248314719988
13,585.1489314874541
14,0.3431856221633293
15,8.251522339261023
16,3.7105716992747377
17,-7.386473036859343
18,-0.1387341329626025
2,1, 1, 1, 0, 9,15.00,30.00,Tuesday
7,-9.45
8,784.787199245388
9,1.0
10,364.91995730569456
11,1.0
12,364.91995730569456
13,784.787199245388
14,0.6971848331508583
15,13.333638610352948
16,5.1653041472523
17,-6.311166621506516
18,0.029283537775909434
2,1, 1, 1, 0, 9,30.00,45.00,Tuesday
7,-9.175
8,921.7412871041541
9,1.0
10,420.35879993239237
11,1.0
12,420.35879993239237
13,921.7412871041541
14,0.9241166187102895
15,16.093162857847756
16,6.15222848968051
17,-5.653290607815393
18,0.21585005777348899
2,1, 1, 1, 0, 9,45.00,60.00,Tuesday
7,-8.9
8,1065.0474005418728
9,1.0
10,478.00138373643099
11,1.0
12,478.00138373643099
13,1065.0474005418728
14,1.1929407191816369
15,19.088935546872773
16,7.137078808265926
17,-4.965939542598676
18,0.4172523341744089
2,1, 1, 1, 0,10, 0.00,15.00,Tuesday
7,-8.350000000000002
8,1212.3134782022194
9,1.0
10,536.9185644770597
11,1.0
12,536.9185644770597
13,1212.3134782022194
14,1.40092137673836
15,20.21026380463153
16,8.155094915323787
17,-4.1381923456590929
18,0.6309956185478088
2,1, 1, 1, 0,10,15.00,30.00,Tuesday
7,-7.800000000000001
8,1365.083720287943
9,1.0
10,598.0969199229219
11,1.0
12,598.0969199229219
13,1365.083720287943
14,1.6304160332739238
15,21.46611764093387
16,9.198280109217535
17,-3.3381122972415939
18,0.8532816587519603
2,1, 1, 1, 0,10,30.00,45.00,Tuesday
7,-7.25
8,1468.1999493442264
9,1.0
10,637.6133352894237
11,1.0
12,637.6133352894237
13,1468.1999493442264
14,1.7931424688597016
15,21.528348475830744
16,9.933941506728673
17,-2.7672052544588725
18,1.0720666108673245
2,1, 1, 1, 0,10,45.00,60.00,Tuesday
7,-6.7
8,1569.705828175432
9,1.0
10,676.6412284283772
11,1.0
12,676.6412284283772
13,1569.705828175432
14,1.969424513781266
15,21.690554745655374
16,10.639479767734713
17,-2.2012374772309615
18,1.281099760832135
2,1, 1, 1, 0,11, 0.00,15.00,Tuesday
7,-6.275
8,1669.2149873773784
9,1.0
10,715.0112779846514
11,1.0
12,715.0112779846514
13,1669.2149873773784
14,2.2234977080101836
15,23.78767512628141
16,11.341355946214322
17,-1.4729875652031979
18,1.4839556237989667
2,1, 1, 1, 0,11,15.00,30.00,Tuesday
7,-5.85
8,1766.190944948854
9,1.0
10,752.5077794605232
11,1.0
12,752.5077794605232
13,1766.190944948854
14,2.4593275784547634
15,25.722153152025706
16,12.030840938416418
17,-0.7566060252274838
18,1.68488291774976
2,1, 1, 1, 0,11,30.00,45.00,Tuesday
7,-5.425
8,1740.4832380327117
9,1.0
10,742.5988714321785
11,1.0
12,742.5988714321785
13,1740.4832380327117
14,2.5823625975079356
15,25.57367319977556
16,12.069772651967128
17,-0.45254664086053256
18,1.8706525939618833
2,1, 1, 1, 0,11,45.00,60.00,Tuesday
7,-5.0
8,1702.0518597121073
9,1.0
10,727.8169025450712
11,1.0
12,727.8169025450712
13,1702.0518597121073
14,2.700854809529457
15,25.343767416792976
16,12.014579041261698
17,-0.1798170820031828
18,2.0323855822353615
2,1, 1, 1, 0,12, 0.00,15.00,Tuesday
7,-4.575
8,1635.6982778457269
9,1.0
10,700.3759009170325
11,1.0
12,700.3759009170325
13,1635.6982778457269
14,2.775888482101184
15,24.60057136824485
16,11.780272337011639
17,0.03486525245534722
18,2.1662406128414437
2,1, 1, 1, 0,12,15.00,30.00,Tuesday
7,-4.15
8,1584.1822507707826
9,1.0
10,681.6705029034473
11,1.0
12,681.6705029034473
13,1584.1822507707826
14,2.8669905620258926
15,24.269556803075113
16,11.645652374228917
17,0.32088211789636036
18,2.2784255990144728
2,1, 1, 1, 0,12,30.00,45.00,Tuesday
7,-3.7249999999999998
8,1386.7884648429923
9,1.0
10,602.01865277251
11,1.0
12,602.01865277251
13,1386.7884648429923
14,2.77347901625832
15,21.240859917365886
16,10.671790248221669
17,0.1237731071946655
18,2.3549306064704687
2,1, 1, 1, 0,12,45.00,60.00,Tuesday
7,-3.3
8,1130.2896420139664
9,1.0
10,493.55004396206007
11,1.0
12,493.55004396206007
13,1130.2896420139664
14,2.5947270709746479
15,17.061644279687209
16,9.214066671491196
17,-0.3451062653291501
18,2.381196594570131
2,1, 1, 1, 0,13, 0.00,15.00,Tuesday
7,-3.0249999999999996
8,926.9697700398867
9,1.0
10,412.335026418112
11,1.0
12,412.335026418112
13,926.9697700398867
14,2.480883948011264
15,14.216219526488452
16,8.06513355998436
17,-0.6589939524903912
18,2.3610211740324149
2,1, 1, 1, 0,13,15.00,30.00,Tuesday
7,-2.75
8,673.6692877186736
9,1.0
10,305.94037763660148
11,1.0
12,305.94037763660148
13,673.6692877186736
14,2.2501286779041504
15,10.041540659561916
16,6.513670060372419
17,-1.2016264555404633
18,2.299984616195417
2,1, 1, 1, 0,13,30.00,45.00,Tuesday
7,-2.475
8,612.4821658219637
9,1.0
10,281.0763483922329
11,1.0
12,281.0763483922329
13,612.4821658219637
14,2.2251070091406395
15,9.529625310726772
16,6.11734216039207
17,-1.0693317263049949
18,2.23237934742734
2,1, 1, 1, 0,13,45.00,60.00,Tuesday
7,-2.2
8,552.552520277972
9,1.0
10,256.7721209415886
11,1.0
12,256.7721209415886
13,552.552520277972
14,2.1921574867930206
15,8.920300215454802
16,5.764641077737906
17,-0.9153222227848801
18,2.1786959679213937
2,1, 1, 1, 0,14, 0.00,15.00,Tuesday
7,-1.9250000000000003
8,449.8411357962977
9,1.0
10,210.73276284570657
11,1.0
12,210.73276284570657
13,449.8411357962977
14,2.0986509432035245
15,7.370437109382948
16,5.064770953334573
17,-1.0000286590723136
18,2.1335783605157587
2,1, 1, 1, 0,14,15.00,30.00,Tuesday
7,-1.6500000000000002
8,396.7537665575463
9,1.0
10,189.38488290342594
11,1.0
12,189.38488290342594
13,396.7537665575463
14,2.08003155158322
15,6.9662564711718
16,4.7267088516125
17,-0.8850514061366539
18,2.0961633205699918
2,1, 1, 1, 0,14,30.00,45.00,Tuesday
7,-1.375
8,379.3266897359249
9,1.0
10,179.3940297802914
11,1.0
12,179.3940297802914
13,379.3266897359249
14,2.083110764267693
15,7.085455957558734
16,4.59002279953927
17,-0.6588743595319215
18,2.067666743174325
2,1, 1, 1, 0,14,45.00,60.00,Tuesday
7,-1.1
8,361.3465167603399
9,1.0
10,169.43349014176136
11,1.0
12,169.43349014176136
13,361.3465167603399
14,2.087213659147222
15,7.182370251745858
16,4.453295773316995
17,-0.4331582111682337
18,2.0469035048000014
2,1, 1, 1, 0,15, 0.00,15.00,Tuesday
7,-1.1
8,379.75098608822659
9,1.0
10,178.15692317953907
11,1.0
12,178.15692317953907
13,379.75098608822659
14,2.1310293189369107
15,7.996521278038798
16,4.591812956800823
17,-0.3221619118897934
18,2.03581028243372
2,1, 1, 1, 0,15,15.00,30.00,Tuesday
7,-1.1
8,356.65544888641286
9,1.0
10,166.40516310952945
11,1.0
12,166.40516310952945
13,356.65544888641286
14,2.1009022683844837
15,7.632030436549143
16,4.411680372027718
17,-0.41118075133772438
18,2.0279068399510558
2,1, 1, 1, 0,15,30.00,45.00,Tuesday
7,-1.1
8,299.30897077907687
9,1.0
10,140.8967369711617
11,1.0
12,140.8967369711617
13,299.30897077907687
14,2.021344478287196
15,6.423455941734368
16,3.984569243079477
17,-0.6824696776563997
18,2.0120530561056877
2,1, 1, 1, 0,15,45.00,60.00,Tuesday
7,-1.1
8,245.01101588106585
9,1.0
10,116.57355796743004
11,1.0
12,116.57355796743004
13,245.01101588106585
14,1.9321796428850087
15,5.208764746717635
16,3.5557132802242679
17,-0.9590602021857535
18,1.9830311506336216
2,1, 1, 1, 0,16, 0.00,15.00,Tuesday
7,-1.1
8,193.3619366811613
9,1.0
10,93.14939272689483
11,1.0
12,93.14939272689483
13,193.3619366811613
14,1.854756600004873
15,4.153464129813971
16,3.132190911067198
17,-1.1745488746749402
18,1.9419254390912225
2,1, 1, 1, 0,16,15.00,30.00,Tuesday
7,-1.1
8,119.36636342751545
9,1.0
10,57.94047897402063
11,1.0
12,57.94047897402063
13,119.36636342751545
14,1.7079874562527043
15,2.0214733523295846
16,2.4782270310594187
17,-1.5815658628305869
18,1.8857838144119437
2,1, 1, 1, 0,16,30.00,45.00,Tuesday
7,-1.1
8,91.9639739168048
9,1.0
10,45.38251793443488
11,1.0
12,45.38251793443488
13,91.9639739168048
14,1.6541824540088166
15,1.4020728477587679
16,2.192544012765211
17,-1.7092380969272654
18,1.8222835935243822
2,1, 1, 1, 0,16,45.00,60.00,Tuesday
7,-1.1
8,63.83988587375654
9,1.0
10,32.02625108222755
11,1.0
12,32.02625108222755
13,63.83988587375654
14,1.5710625561441348
15,0.5280825938737607
16,1.8977119301199537
17,-1.8705747113408507
18,1.7573476003722937
2,1, 1, 1, 0,17, 0.00,15.00,Tuesday
7,-1.1
8,34.880124245395318
9,1.0
10,17.762198626050539
11,1.0
12,17.762198626050539
13,34.880124245395318
14,1.4601745484829503
15,-0.7379145311330079
16,1.5511518861891319
17,-2.168333162918657
18,1.6890932208595418
2,1, 1, 1, 0,17,15.00,30.00,Tuesday
7,-1.1
8,0.0
9,0.0
10,0.0
11,0.0
12,0.0
13,0.0
14,1.303764900870719
15,-2.5812428795007569
16,1.1500149230829493
17,-2.455864890399937
18,1.6074271729080907
2,1, 1, 1, 0,17,30.00,45.00,Tuesday
7,-1.1
8,0.0
9,0.0
10,0.0
11,0.0
12,0.0
13,0.0
14,1.2647791201492589
15,-2.723382001436168
16,1.0626124706624296
17,-2.5500951519798038
18,1.5213846355627199
2,1, 1, 1, 0,17,45.00,60.00,Tuesday
7,-1.1
8,0.0
9,0.0
10,0.0
11,0.0
12,0.0
13,0.0
14,1.2086936468115286
15,-2.9260774436909324
16,1.0105647094238748
17,-2.6579382644970339
18,1.445398860981397
2,1, 1, 1, 0,18, 0.00,15.00,Tuesday
7,-1.25
8,0.0
9,0.0
10,0.0
11,0.0
12,0.0
13,0.0
14,1.1637623260832835
15,-3.0723675188612415
16,0.9477894645936544
17,-2.8111537514151907
18,1.384535105054368
2,1, 1, 1, 0,18,15.00,30.00,Tuesday
7,-1.4
8,0.0
9,0.0
10,0.0
11,0.0
12,0.0
13,0.0
14,1.12411776853394
15,-3.2247108343407757
16,0.9030707838860508
17,-2.953082946320251
18,1.336841883583973
2,1, 1, 1, 0,18,30.00,45.00,Tuesday
7,-1.5499999999999999
8,0.0
9,0.0
10,0.0
11,0.0
12,0.0
13,0.0
14,1.0879143332588584
15,-3.376401966352652
16,0.8580640719656003
17,-3.0989525583312345
18,1.2980321908272297
2,1, 1, 1, 0,18,45.00,60.00,Tuesday
7,-1.7
8,0.0
9,0.0
10,0.0
11,0.0
12,0.0
13,0.0
14,1.0545679679210208
15,-3.528155946287229
16,0.816070670672616
17,-3.244332463707451
18,1.2644803353093804
2,1, 1, 1, 0,19, 0.00,15.00,Tuesday
7,-1.825
8,0.0
9,0.0
10,0.0
11,0.0
12,0.0
13,0.0
14,1.0493279778234884
15,-3.3628223722859489
16,0.7908023198489218
17,-3.207698149140981
18,1.237524633149999
2,1, 1, 1, 0,19,15.00,30.00,Tuesday
7,-1.9500000000000002
8,0.0
9,0.0
10,0.0
11,0.0
12,0.0
13,0.0
14,1.0449967651551336
15,-3.280923137434738
16,0.7783810769678894
17,-3.204665470684745
18,1.2186493534367034
2,1, 1, 1, 0,19,30.00,45.00,Tuesday
7,-2.075
8,0.0
9,0.0
10,0.0
11,0.0
12,0.0
13,0.0
14,1.035208454934855
15,-3.35059497716407
16,0.7653034306458153
17,-3.288466987106517
18,1.2062094049489725
2,1, 1, 1, 0,19,45.00,60.00,Tuesday
7,-2.2
8,0.0
9,0.0
10,0.0
11,0.0
12,0.0
13,0.0
14,1.0277459420182056
15,-3.3150190509693915
16,0.7555275329797837
17,-3.301719979335644
18,1.1970712847414478
2,1, 1, 1, 0,20, 0.00,15.00,Tuesday
7,-1.9250000000000003
8,0.0
9,0.0
10,0.0
11,0.0
12,0.0
13,0.0
14,1.0363649132108706
15,-3.010405831257931
16,0.7786557023375735
17,-3.021059717171113
18,1.1903508554126923
2,1, 1, 1, 0,20,15.00,30.00,Tuesday
7,-1.6500000000000002
8,0.0
9,0.0
10,0.0
11,0.0
12,0.0
13,0.0
14,1.0453955993449574
15,-2.709196517940442
16,0.8036863212755634
17,-2.740695463386146
18,1.18600295857333
2,1, 1, 1, 0,20,30.00,45.00,Tuesday
7,-1.375
8,0.0
9,0.0
10,0.0
11,0.0
12,0.0
13,0.0
14,1.0555617584096678
15,-2.409424188056623
16,0.8298427611268835
17,-2.4605898010834155
18,1.183770239857959
2,1, 1, 1, 0,20,45.00,60.00,Tuesday
7,-1.1
8,0.0
9,0.0
10,0.0
11,0.0
12,0.0
13,0.0
14,1.0674924015663184
15,-2.111053950938397
16,0.8572077487174852
17,-2.1807316339265414
18,1.1833065965382753
2,1, 1, 1, 0,21, 0.00,15.00,Tuesday
7,-1.25
8,0.0
9,0.0
10,0.0
11,0.0
12,0.0
13,0.0
14,1.0352764111472613
15,-2.4059230467333174
16,0.832494924042976
17,-2.424147457361414
18,1.1794564418637386
2,1, 1, 1, 0,21,15.00,30.00,Tuesday
7,-1.4
8,0.0
9,0.0
10,0.0
11,0.0
12,0.0
13,0.0
14,1.0008164688138986
15,-2.6297251071730156
16,0.7958630244371534
17,-2.60624075961897
18,1.1675067182508654
2,1, 1, 1, 0,21,30.00,45.00,Tuesday
7,-1.5499999999999999
8,0.0
9,0.0
10,0.0
11,0.0
12,0.0
13,0.0
14,0.9535720118535825
15,-2.9918178349509088
16,0.7450608437025608
17,-2.8731332750051026
18,1.145475256131392
2,1, 1, 1, 0,21,45.00,60.00,Tuesday
7,-1.7
8,0.0
9,0.0
10,0.0
11,0.0
12,0.0
13,0.0
14,0.9013289492048829
15,-3.4639302766922595
16,0.681979172876936
17,-3.178749351635645
18,1.114544118201195
2,1, 1, 1, 0,22, 0.00,15.00,Tuesday
7,-1.5499999999999999
8,0.0
9,0.0
10,0.0
11,0.0
12,0.0
13,0.0
14,0.9242301344899853
15,-2.9522415430706778
16,0.6823976577230724
17,-2.8416559539817287
18,1.0876779727224529
2,1, 1, 1, 0,22,15.00,30.00,Tuesday
7,-1.4
8,0.0
9,0.0
10,0.0
11,0.0
12,0.0
13,0.0
14,0.9374601532534943
15,-2.6056841144415086
16,0.7094543555832615
17,-2.582981293022044
18,1.072668987078002
2,1, 1, 1, 0,22,30.00,45.00,Tuesday
7,-1.25
8,0.0
9,0.0
10,0.0
11,0.0
12,0.0
13,0.0
14,0.9487687661090783
15,-2.3781687199301526
16,0.730315937649948
17,-2.3961369234316409
18,1.0682661665263993
2,1, 1, 1, 0,22,45.00,60.00,Tuesday
7,-1.1
8,0.0
9,0.0
10,0.0
11,0.0
12,0.0
13,0.0
14,0.9636412141468387
15,-2.0823860661672506
16,0.7587006587168048
17,-2.152602693649783
18,1.069987075015729
2,1, 1, 1, 0,23, 0.00,15.00,Tuesday
7,-1.25
8,0.0
9,0.0
10,0.0
11,0.0
12,0.0
13,0.0
14,0.9324367789691511
15,-2.3862358708389999
16,0.7292347606718295
17,-2.4714654867537435
18,1.0692169793634095
2,1, 1, 1, 0,23,15.00,30.00,Tuesday
7,-1.4
8,0.0
9,0.0
10,0.0
11,0.0
12,0.0
13,0.0
14,0.9009957536705626
15,-2.6907822527967069
16,0.6801959788281238
17,-2.790317840050932
18,1.0604799640669649
2,1, 1, 1, 0,23,30.00,45.00,Tuesday
7,-1.5499999999999999
8,0.0
9,0.0
10,0.0
11,0.0
12,0.0
13,0.0
14,0.8668610053659366
15,-2.995787016994433
16,0.6296566608726835
17,-3.1089607881922349
18,1.0434831691819036
2,1, 1, 1, 0,23,45.00,60.00,Tuesday
7,-1.7
8,0.0
9,0.0
10,0.0
11,0.0
12,0.0
13,0.0
14,0.8295686979862438
15,-3.301159470598053
16,0.5761995997194163
17,-3.4275707181420786
18,1.020179166952889
2,1, 1, 1, 0,24, 0.00,15.00,Tuesday
7,-1.7
8,0.0
9,0.0
10,0.0
11,0.0
12,0.0
13,0.0
14,0.8090711901697429
15,-3.3547006701257655
16,0.5465237134914105
17,-3.4844350534830825
18,0.9950478387760849
2,1, 1, 1, 0,24,15.00,30.00,Tuesday
7,-1.7
8,0.0
9,0.0
10,0.0
11,0.0
12,0.0
13,0.0
14,0.7865727644825475
15,-3.4090626087793929
16,0.521947987619285
17,-3.545421193937159
18,0.9710484752238511
2,1, 1, 1, 0,24,30.00,45.00,Tuesday
7,-1.7
8,0.0
9,0.0
10,0.0
11,0.0
12,0.0
13,0.0
14,0.7644107578388139
15,-3.463345152539632
16,0.4968230111601315
17,-3.606608830873597
18,0.9487310961037759
2,1, 1, 1, 0,24,45.00,60.00,Tuesday
7,-1.7
8,0.0
9,0.0
10,0.0
11,0.0
12,0.0
13,0.0
14,0.7426857307733346
15,-3.517622395307205
16,0.4721012353113565
17,-3.6677177664321336
18,0.9275868863194146
End of Data
 Number of Records Written=        1152
