Program Version,EnergyPlus, Version 9.5.0-de239b2e5f, YMD=2023.02.16 18:16
1,5,Environment Title[],Latitude[deg],Longitude[deg],Time Zone[],Elevation[m]
2,8,Day of Simulation[],Month[],Day of Month[],DST Indicator[1=yes 0=no],Hour[],StartMinute[],EndMinute[],DayType
3,5,Cumulative Day of Simulation[],Month[],Day of Month[],DST Indicator[1=yes 0=no],DayType  ! When Daily Report Variables Requested
4,2,Cumulative Days of Simulation[],Month[]  ! When Monthly Report Variables Requested
5,1,Cumulative Days of Simulation[] ! When Run Period Report Variables Requested
6,1,Calendar Year of Simulation[] ! When Annual Report Variables Requested
7,1,Environment,Site Outdoor Air Drybulb Temperature [C] !TimeStep
8,1,ZONE ONE,Zone Windows Total Transmitted Solar Radiation Rate [W] !TimeStep
9,1,ZN001:WALL001,Surface Outside Face Sunlit Fraction [] !TimeStep
10,1,ZN001:WALL001,Surface Outside Face Incident Solar Radiation Rate per Area [W/m2] !TimeStep
11,1,ZN001:WALL001:WIN001,Surface Outside Face Sunlit Fraction [] !TimeStep
12,1,ZN001:WALL001:WIN001,Surface Outside Face Incident Solar Radiation Rate per Area [W/m2] !TimeStep
13,1,ZN001:WALL001:WIN001,Surface Window Transmitted Solar Radiation Rate [W] !TimeStep
14,1,ZN001:WALL001,Surface Inside Face Temperature [C] !TimeStep
15,1,ZN001:WALL001,Surface Outside Face Temperature [C] !TimeStep
16,1,ZN001:WALL001:WIN001,Surface Inside Face Temperature [C] !TimeStep
17,1,ZN001:WALL001:WIN001,Surface Outside Face Temperature [C] !TimeStep
18,1,ZONE ONE,Zone Mean Air Temperature [C] !TimeStep
End of Data Dictionary
1,RUN PERIOD 1,  41.98, -87.92,  -6.00, 201.00
2,1, 1, 1, 0, 1, 0.00,15.00,Tuesday
7,-4.324999999999999
8,0.0
9,0.0
10,0.0
11,0.0
12,0.0
13,0.0
14,4.860959156315232
15,-5.915362779789015
16,4.1743032197130109
17,-5.650070576157077
18,5.314044673843871
2,1, 1, 1, 0, 1,15.00,30.00,Tuesday
7,-6.949999999999999
8,0.0
9,0.0
10,0.0
11,0.0
12,0.0
13,0.0
14,4.689873162014924
15,-8.382796625498058
16,3.8522179420438649
17,-7.960066360519249
18,5.231797280787816
2,1, 1, 1, 0, 1,30.00,45.00,Tuesday
7,-9.575
8,0.0
9,0.0
10,0.0
11,0.0
12,0.0
13,0.0
14,4.501566976933509
15,-10.858138577203724
16,3.526019601739222
17,-10.277679468759004
18,5.121578389490102
2,1, 1, 1, 0, 1,45.00,60.00,Tuesday
7,-12.2
8,0.0
9,0.0
10,0.0
11,0.0
12,0.0
13,0.0
14,4.299545245102851
15,-13.340059796893366
16,3.1867439663822099
17,-12.613799694671627
18,4.9914798906364059
2,1, 1, 1, 0, 2, 0.00,15.00,Tuesday
7,-12.075
8,0.0
9,0.0
10,0.0
11,0.0
12,0.0
13,0.0
14,4.244403412150001
15,-13.140977626036456
16,3.08435536036518
17,-12.469141635093593
18,4.872672919982218
2,1, 1, 1, 0, 2,15.00,30.00,Tuesday
7,-11.95
8,0.0
9,0.0
10,0.0
11,0.0
12,0.0
13,0.0
14,4.174944494695343
15,-12.963692278686512
16,3.03315030736519
17,-12.284738346633333
18,4.780789922003204
2,1, 1, 1, 0, 2,30.00,45.00,Tuesday
7,-11.825
8,0.0
9,0.0
10,0.0
11,0.0
12,0.0
13,0.0
14,4.120248217950841
15,-12.785326458950472
16,2.9865414353694179
17,-12.109210069381561
18,4.712080979378398
2,1, 1, 1, 0, 2,45.00,60.00,Tuesday
7,-11.7
8,0.0
9,0.0
10,0.0
11,0.0
12,0.0
13,0.0
14,4.075396495515442
15,-12.607032871047691
16,2.9517426310252405
17,-11.932849725899928
18,4.6574067179101858
2,1, 1, 1, 0, 3, 0.00,15.00,Tuesday
7,-11.549999999999999
8,0.0
9,0.0
10,0.0
11,0.0
12,0.0
13,0.0
14,4.031548223196275
15,-12.481092562589807
16,2.921539806285182
17,-11.803276921711245
18,4.608861264064596
2,1, 1, 1, 0, 3,15.00,30.00,Tuesday
7,-11.399999999999999
8,0.0
9,0.0
10,0.0
11,0.0
12,0.0
13,0.0
14,3.9906580341624777
15,-12.356521876941585
16,2.891677372912909
17,-11.667464516152905
18,4.562372708915928
2,1, 1, 1, 0, 3,30.00,45.00,Tuesday
7,-11.25
8,0.0
9,0.0
10,0.0
11,0.0
12,0.0
13,0.0
14,3.9505138730120126
15,-12.233480325079884
16,2.863471639819579
17,-11.531678385241435
18,4.516704280310782
2,1, 1, 1, 0, 3,45.00,60.00,Tuesday
7,-11.1
8,0.0
9,0.0
10,0.0
11,0.0
12,0.0
13,0.0
14,3.91074729609898
15,-12.112028335826836
16,2.835804080118919
17,-11.396481473929385
18,4.471686740770999
2,1, 1, 1, 0, 4, 0.00,15.00,Tuesday
7,-11.1
8,0.0
9,0.0
10,0.0
11,0.0
12,0.0
13,0.0
14,3.8676882790843325
15,-12.083188094487096
16,2.7941369957702024
17,-11.387425191559544
18,4.42695273207703
2,1, 1, 1, 0, 4,15.00,30.00,Tuesday
7,-11.1
8,0.0
9,0.0
10,0.0
11,0.0
12,0.0
13,0.0
14,3.8250676361043349
15,-12.055449993001892
16,2.7534226231816776
17,-11.38440656546004
18,4.382285163732864
2,1, 1, 1, 0, 4,30.00,45.00,Tuesday
7,-11.1
8,0.0
9,0.0
10,0.0
11,0.0
12,0.0
13,0.0
14,3.7824638174729436
15,-12.02926178378671
16,2.7129450558962846
17,-11.381811455450645
18,4.3376535931629089
2,1, 1, 1, 0, 4,45.00,60.00,Tuesday
7,-11.1
8,0.0
9,0.0
10,0.0
11,0.0
12,0.0
13,0.0
14,3.7399031228016579
15,-12.004496574328768
16,2.6725377693030625
17,-11.379348465129852
18,4.293094036042748
2,1, 1, 1, 0, 5, 0.00,15.00,Tuesday
7,-10.975
8,0.0
9,0.0
10,0.0
11,0.0
12,0.0
13,0.0
14,3.702653750761381
15,-11.88237532795131
16,2.6444134992875094
17,-11.273782987448442
18,4.249352070161303
2,1, 1, 1, 0, 5,15.00,30.00,Tuesday
7,-10.85
8,0.0
9,0.0
10,0.0
11,0.0
12,0.0
13,0.0
14,3.6655212180484129
15,-11.760339064458556
16,2.6172013981552029
17,-11.161462724414662
18,4.206802877835887
2,1, 1, 1, 0, 5,30.00,45.00,Tuesday
7,-10.725
8,0.0
9,0.0
10,0.0
11,0.0
12,0.0
13,0.0
14,3.6291911084546006
15,-11.638285473411602
16,2.5904491200330996
17,-11.048667610850885
18,4.165325834040312
2,1, 1, 1, 0, 5,45.00,60.00,Tuesday
7,-10.6
8,0.0
9,0.0
10,0.0
11,0.0
12,0.0
13,0.0
14,3.5935498910025838
15,-11.51624278418679
16,2.5644098701036457
17,-10.93579113511288
18,4.124665499903964
2,1, 1, 1, 0, 6, 0.00,15.00,Tuesday
7,-10.6
8,0.0
9,0.0
10,0.0
11,0.0
12,0.0
13,0.0
14,3.5510308288159595
15,-11.517086057875869
16,2.5261373444835728
17,-10.931386066169921
18,4.0835283521001479
2,1, 1, 1, 0, 6,15.00,30.00,Tuesday
7,-10.6
8,0.0
9,0.0
10,0.0
11,0.0
12,0.0
13,0.0
14,3.5091156816208959
15,-11.517866768009644
16,2.486387620035373
17,-10.934049359441133
18,4.041263081254366
2,1, 1, 1, 0, 6,30.00,45.00,Tuesday
7,-10.6
8,0.0
9,0.0
10,0.0
11,0.0
12,0.0
13,0.0
14,3.4667232493197659
15,-11.518688018591578
16,2.446659776268575
17,-10.937145774794658
18,3.9980626658753035
2,1, 1, 1, 0, 6,45.00,60.00,Tuesday
7,-10.6
8,0.0
9,0.0
10,0.0
11,0.0
12,0.0
13,0.0
14,3.424031339676862
15,-11.519508544554729
16,2.4065609975903614
17,-10.940302232137924
18,3.954352768947797
2,1, 1, 1, 0, 7, 0.00,15.00,Tuesday
7,-10.6
8,0.0
9,0.0
10,0.0
11,0.0
12,0.0
13,0.0
14,3.3834273799657357
15,-11.495711307563616
16,2.3669926793931497
17,-10.937152930386901
18,3.910853741523297
2,1, 1, 1, 0, 7,15.00,30.00,Tuesday
7,-10.6
8,0.0
9,0.0
10,0.0
11,0.0
12,0.0
13,0.0
14,3.342695396983658
15,-11.473144387320606
16,2.3285408668863285
17,-10.933657582469437
18,3.867924191083458
2,1, 1, 1, 0, 7,30.00,45.00,Tuesday
7,-10.6
8,0.0
9,0.0
10,0.0
11,0.0
12,0.0
13,0.0
14,3.3022684705929326
15,-11.451724308465807
16,2.2902158868241146
17,-10.930279765804812
18,3.82551925400261
2,1, 1, 1, 0, 7,45.00,60.00,Tuesday
7,-10.6
8,0.0
9,0.0
10,0.0
11,0.0
12,0.0
13,0.0
14,3.262142125435394
15,-11.431383582167842
16,2.2521785013919954
17,-10.927017473603712
18,3.783492852638655
2,1, 1, 1, 0, 8, 0.00,15.00,Tuesday
7,-10.45
8,0.0
9,0.0
10,0.0
11,0.0
12,0.0
13,0.0
14,3.22109890651603
15,-11.382379882887078
16,2.2186309525770868
17,-10.888951986479583
18,3.7412157642293546
2,1, 1, 1, 0, 8,15.00,30.00,Tuesday
7,-10.3
8,115.03919117926972
9,1.0
10,22.819555959623899
11,1.0
12,22.819555959623899
13,115.03919117926972
14,3.290325828264776
15,-9.709131179790809
16,2.530071200592488
17,-10.589395134363372
18,3.714417860626239
2,1, 1, 1, 0, 8,30.00,45.00,Tuesday
7,-10.15
8,564.843581773016
9,1.0
10,109.75755355442667
11,1.0
12,109.75755355442667
13,564.843581773016
14,3.659123755321519
15,-3.342137491178889
16,3.9625376306836417
17,-9.51138911138463
18,3.745630459603076
2,1, 1, 1, 0, 8,45.00,60.00,Tuesday
7,-10.0
8,1027.107415698465
9,1.0
10,195.8764694434918
11,1.0
12,195.8764694434918
13,1027.107415698465
14,4.106494741077439
15,3.1339976105599964
16,5.4169518950027399
17,-8.407041690593133
18,3.843859195435628
2,1, 1, 1, 0, 9, 0.00,15.00,Tuesday
7,-9.725
8,1487.7790350735168
9,1.0
10,278.97248314719988
11,1.0
12,278.97248314719988
13,1487.7790350735168
14,4.508332701903686
15,8.323765331069185
16,6.772707916440481
17,-7.418039448873344
18,3.995862734158878
2,1, 1, 1, 0, 9,15.00,30.00,Tuesday
7,-9.45
8,1973.3797118442713
9,1.0
10,364.91995730569456
11,1.0
12,364.91995730569456
13,1973.3797118442713
14,4.91480679359799
15,13.397738419329679
16,8.15217526434094
17,-6.4287464935511029
18,4.1897176365869719
2,1, 1, 1, 0, 9,30.00,45.00,Tuesday
7,-9.175
8,2294.651274485231
9,1.0
10,420.35879993239237
11,1.0
12,420.35879993239237
13,2294.651274485231
14,5.190913424124569
15,16.15587375874433
16,9.110171573841797
17,-5.8107433776359589
18,4.406123871702336
2,1, 1, 1, 0, 9,45.00,60.00,Tuesday
7,-8.9
8,2628.157408555287
9,1.0
10,478.00138373643099
11,1.0
12,478.00138373643099
13,2628.157408555287
14,5.519590250892049
15,19.15039396327972
16,10.056843177527412
17,-5.168990643135544
18,4.635129513231181
2,1, 1, 1, 0,10, 0.00,15.00,Tuesday
7,-8.350000000000002
8,2968.709586547734
9,1.0
10,536.9185644770597
11,1.0
12,536.9185644770597
13,2968.709586547734
14,5.79090147487924
15,20.267260757371447
16,11.03960133155897
17,-4.376195563886768
18,4.878506589718227
2,1, 1, 1, 0,10,15.00,30.00,Tuesday
7,-7.800000000000001
8,3321.0268194611828
9,1.0
10,598.0969199229219
11,1.0
12,598.0969199229219
13,3321.0268194611828
14,6.088176816864967
15,21.51983554169431
16,12.041672031767348
17,-3.6111212845924
18,5.142668162436532
2,1, 1, 1, 0,10,30.00,45.00,Tuesday
7,-7.25
8,3552.151013375401
9,1.0
10,637.6133352894237
11,1.0
12,637.6133352894237
13,3552.151013375401
14,6.3152154637987609
15,21.57914745884726
16,12.770944520824174
17,-3.054337512579707
18,5.413509060116912
2,1, 1, 1, 0,10,45.00,60.00,Tuesday
7,-6.7
8,3779.8708706745844
9,1.0
10,676.6412284283772
11,1.0
12,676.6412284283772
13,3779.8708706745844
14,6.5624830376392639
15,21.738995744280595
16,13.46967992825671
17,-2.50259637246279
18,5.679935673258638
2,1, 1, 1, 0,11, 0.00,15.00,Tuesday
7,-6.275
8,4003.447923168032
9,1.0
10,715.0112779846514
11,1.0
12,715.0112779846514
13,4003.447923168032
14,6.885478757908044
15,23.83669708080134
16,14.17029442731814
17,-1.8057794962059007
18,5.943712705988216
2,1, 1, 1, 0,11,15.00,30.00,Tuesday
7,-5.85
8,4221.762249309513
9,1.0
10,752.5077794605232
11,1.0
12,752.5077794605232
13,4221.762249309513
14,7.19605492914405
15,25.771603567188188
16,14.863985981236965
17,-1.1187825201820943
18,6.209104261614777
2,1, 1, 1, 0,11,30.00,45.00,Tuesday
7,-5.425
8,4156.879578089225
9,1.0
10,742.5988714321785
11,1.0
12,742.5988714321785
13,4156.879578089225
14,7.375728706729821
15,25.62330909087111
16,14.973859992951646
17,-0.8092225943753419
18,6.460138751379572
2,1, 1, 1, 0,11,45.00,60.00,Tuesday
7,-5.0
8,4064.169807818047
9,1.0
10,727.8169025450712
11,1.0
12,727.8169025450712
13,4064.169807818047
14,7.550638664023013
15,25.39411808642863
16,14.993582154477508
17,-0.5264609292580644
18,6.685188354353115
2,1, 1, 1, 0,12, 0.00,15.00,Tuesday
7,-4.575
8,3904.7370931113848
9,1.0
10,700.3759009170325
11,1.0
12,700.3759009170325
13,3904.7370931113848
14,7.670644258041129
15,24.651500744492407
16,14.855833180430182
17,-0.28966184665773656
18,6.878038742929734
2,1, 1, 1, 0,12,15.00,30.00,Tuesday
7,-4.15
8,3786.4971101905705
9,1.0
10,681.6705029034473
11,1.0
12,681.6705029034473
13,3786.4971101905705
14,7.812161643697971
15,24.32109971463118
16,14.793929092417955
17,0.009078265762582305
18,7.045898207746235
2,1, 1, 1, 0,12,30.00,45.00,Tuesday
7,-3.7249999999999998
8,3324.2291040318089
9,1.0
10,602.01865277251
11,1.0
12,602.01865277251
13,3324.2291040318089
14,7.727329086618546
15,21.292676237408306
16,13.985263965475383
17,-0.13277582603461725
18,7.169247332926524
2,1, 1, 1, 0,12,45.00,60.00,Tuesday
7,-3.3
8,2714.939666512416
9,1.0
10,493.55004396206007
11,1.0
12,493.55004396206007
13,2714.939666512416
14,7.536670661157542
15,17.114214153109566
16,12.722536640751514
17,-0.5109128694860488
18,7.2272816030266109
2,1, 1, 1, 0,13, 0.00,15.00,Tuesday
7,-3.0249999999999996
8,2241.7153986594264
9,1.0
10,412.335026418112
11,1.0
12,412.335026418112
13,2241.7153986594264
14,7.40017335495048
15,14.269985652666602
16,11.700020080734817
17,-0.7662293557161775
18,7.234162781691982
2,1, 1, 1, 0,13,15.00,30.00,Tuesday
7,-2.75
8,1641.850123185226
9,1.0
10,305.94037763660148
11,1.0
12,305.94037763660148
13,1641.850123185226
14,7.112662009369169
15,10.095925463162676
16,10.320561216616966
17,-1.2237077589169303
18,7.196648126297941
2,1, 1, 1, 0,13,30.00,45.00,Tuesday
7,-2.475
8,1498.9510431694724
9,1.0
10,281.0763483922329
11,1.0
12,281.0763483922329
13,1498.9510431694724
14,7.096358694964505
15,9.585378742496479
16,9.944800764561365
17,-1.0731492715067362
18,7.143131880034721
2,1, 1, 1, 0,13,45.00,60.00,Tuesday
7,-2.2
8,1359.0287484929959
9,1.0
10,256.7721209415886
11,1.0
12,256.7721209415886
13,1359.0287484929959
14,7.059880115305411
15,8.978050190189144
16,9.649873789924073
17,-0.9002566387210891
18,7.096940120282152
2,1, 1, 1, 0,14, 0.00,15.00,Tuesday
7,-1.9250000000000003
8,1110.188267973163
9,1.0
10,210.73276284570657
11,1.0
12,210.73276284570657
13,1110.188267973163
14,6.937658159407608
15,7.429666501124482
16,9.039499081885538
17,-0.9429350328347255
18,7.054121199153006
2,1, 1, 1, 0,14,15.00,30.00,Tuesday
7,-1.6500000000000002
8,986.2055451828589
9,1.0
10,189.38488290342594
11,1.0
12,189.38488290342594
13,986.2055451828589
14,6.9154147583433469
15,7.027493383262523
16,8.727789361659916
17,-0.8078705202917149
18,7.015230296390742
2,1, 1, 1, 0,14,30.00,45.00,Tuesday
7,-1.375
8,940.5609907953474
9,1.0
10,179.3940297802914
11,1.0
12,179.3940297802914
13,940.5609907953474
14,6.908491838592458
15,7.148343996028385
16,8.619449268591496
17,-0.5670019125834074
18,6.983307630649136
2,1, 1, 1, 0,14,45.00,60.00,Tuesday
7,-1.1
8,894.3949724036753
9,1.0
10,169.43349014176136
11,1.0
12,169.43349014176136
13,894.3949724036753
14,6.899943217751589
15,7.2472550711375
16,8.505651508276174
17,-0.3262803992350882
18,6.9579759513594239
2,1, 1, 1, 0,15, 0.00,15.00,Tuesday
7,-1.1
8,941.4068197394458
9,1.0
10,178.15692317953907
11,1.0
12,178.15692317953907
13,941.4068197394458
14,6.948220414187517
15,8.063796400575022
16,8.623711448520453
17,-0.22123486471207344
18,6.942914053735395
2,1, 1, 1, 0,15,15.00,30.00,Tuesday
7,-1.1
8,884.4258525960432
9,1.0
10,166.40516310952945
11,1.0
12,166.40516310952945
13,884.4258525960432
14,6.907382407754657
15,7.700307635618694
16,8.474965222775495
17,-0.29122831272547958
18,6.930921899082075
2,1, 1, 1, 0,15,30.00,45.00,Tuesday
7,-1.1
8,745.7319878230006
9,1.0
10,140.8967369711617
11,1.0
12,140.8967369711617
13,745.7319878230006
14,6.8060403038779999
15,6.493285065296526
16,8.083495648538304
17,-0.5282937434621999
18,6.909271811340329
2,1, 1, 1, 0,15,45.00,60.00,Tuesday
7,-1.1
8,613.6766501346383
9,1.0
10,116.57355796743004
11,1.0
12,116.57355796743004
13,613.6766501346383
14,6.710100646282676
15,5.288153987016025
16,7.683278640270942
17,-0.7704878168989353
18,6.870827289516632
2,1, 1, 1, 0,16, 0.00,15.00,Tuesday
7,-1.1
8,487.0488027440361
9,1.0
10,93.14939272689483
11,1.0
12,93.14939272689483
13,487.0488027440361
14,6.615418787526448
15,4.235320146464307
16,7.285940496997853
17,-0.9449074526054346
18,6.816357679180959
2,1, 1, 1, 0,16,15.00,30.00,Tuesday
7,-1.1
8,302.3607792671943
9,1.0
10,57.94047897402063
11,1.0
12,57.94047897402063
13,302.3607792671943
14,6.440292453675176
15,2.1106073381362147
16,6.660060609392303
17,-1.2853255645560467
18,6.741724876126492
2,1, 1, 1, 0,16,30.00,45.00,Tuesday
7,-1.1
8,234.42837183280779
9,1.0
10,45.38251793443488
11,1.0
12,45.38251793443488
13,234.42837183280779
14,6.3704399846073909
15,1.4983404616644454
16,6.3789092069253
17,-1.3838866931579333
18,6.656247822583742
2,1, 1, 1, 0,16,45.00,60.00,Tuesday
7,-1.1
8,163.64653449269407
9,1.0
10,32.02625108222755
11,1.0
12,32.02625108222755
13,163.64653449269407
14,6.267490817463444
15,0.633953945229421
16,6.121698924604175
17,-1.5011213210677852
18,6.566424398697404
2,1, 1, 1, 0,17, 0.00,15.00,Tuesday
7,-1.1
8,89.75989496584296
9,1.0
10,17.762198626050539
11,1.0
12,17.762198626050539
13,89.75989496584296
14,6.136262035294885
15,-0.6191868666934723
16,5.8272309872064629
17,-1.7497836595908894
18,6.475604394100212
2,1, 1, 1, 0,17,15.00,30.00,Tuesday
7,-1.1
8,0.0
9,0.0
10,0.0
11,0.0
12,0.0
13,0.0
14,5.958348350766839
15,-2.4570564384409447
16,5.474227485360757
17,-2.0091424486004145
18,6.375176302571558
2,1, 1, 1, 0,17,30.00,45.00,Tuesday
7,-1.1
8,0.0
9,0.0
10,0.0
11,0.0
12,0.0
13,0.0
14,5.905270294538399
15,-2.593929137471416
16,5.368153758241988
17,-2.0812654956242797
18,6.278124567596507
2,1, 1, 1, 0,17,45.00,60.00,Tuesday
7,-1.1
8,0.0
9,0.0
10,0.0
11,0.0
12,0.0
13,0.0
14,5.838460331076908
15,-2.7861858759764055
16,5.30549559661614
17,-2.166142361371328
18,6.196521758460754
2,1, 1, 1, 0,18, 0.00,15.00,Tuesday
7,-1.25
8,0.0
9,0.0
10,0.0
11,0.0
12,0.0
13,0.0
14,5.783236966184093
15,-2.9337998053308516
16,5.232017746511929
17,-2.3205882862548039
18,6.131597549180892
2,1, 1, 1, 0,18,15.00,30.00,Tuesday
7,-1.4
8,0.0
9,0.0
10,0.0
11,0.0
12,0.0
13,0.0
14,5.733176028894895
15,-3.086121201263753
16,5.172384343436306
17,-2.464590207723063
18,6.0788113658919029
2,1, 1, 1, 0,18,30.00,45.00,Tuesday
7,-1.5499999999999999
8,0.0
9,0.0
10,0.0
11,0.0
12,0.0
13,0.0
14,5.687492462116503
15,-3.23794489883278
16,5.117263534535027
17,-2.609097055776772
18,6.033090175912841
2,1, 1, 1, 0,18,45.00,60.00,Tuesday
7,-1.7
8,0.0
9,0.0
10,0.0
11,0.0
12,0.0
13,0.0
14,5.644074049135928
15,-3.3899295110397364
16,5.065430780078941
17,-2.753232916180991
18,5.991018968730305
2,1, 1, 1, 0,19, 0.00,15.00,Tuesday
7,-1.825
8,0.0
9,0.0
10,0.0
11,0.0
12,0.0
13,0.0
14,5.626226675902682
15,-3.240406424953905
16,5.027405406904563
17,-2.7544253126486639
18,5.954561013494685
2,1, 1, 1, 0,19,15.00,30.00,Tuesday
7,-1.9500000000000002
8,0.0
9,0.0
10,0.0
11,0.0
12,0.0
13,0.0
14,5.607826237947128
15,-3.1724432046501547
16,5.006183518978332
17,-2.779789032651479
18,5.925397441092268
2,1, 1, 1, 0,19,30.00,45.00,Tuesday
7,-2.075
8,0.0
9,0.0
10,0.0
11,0.0
12,0.0
13,0.0
14,5.584768370277794
15,-3.245845724056108
16,4.977900340148835
17,-2.87331615456651
18,5.901826778932368
2,1, 1, 1, 0,19,45.00,60.00,Tuesday
7,-2.2
8,0.0
9,0.0
10,0.0
11,0.0
12,0.0
13,0.0
14,5.564964659353167
15,-3.2226364728225778
16,4.954875785792865
17,-2.920310662871259
18,5.880799688949995
2,1, 1, 1, 0,20, 0.00,15.00,Tuesday
7,-1.9250000000000003
8,0.0
9,0.0
10,0.0
11,0.0
12,0.0
13,0.0
14,5.560904964909931
15,-2.921174720918455
16,4.9649327420856939
17,-2.651469426130234
18,5.861968121278763
2,1, 1, 1, 0,20,15.00,30.00,Tuesday
7,-1.6500000000000002
8,0.0
9,0.0
10,0.0
11,0.0
12,0.0
13,0.0
14,5.556368114999563
15,-2.6227788432814589
16,4.97909305821463
17,-2.3819460667263
18,5.845532716636101
2,1, 1, 1, 0,20,30.00,45.00,Tuesday
7,-1.375
8,0.0
9,0.0
10,0.0
11,0.0
12,0.0
13,0.0
14,5.5532143870689849
15,-2.3256528209380837
16,4.994076782366051
17,-2.1123037504444257
18,5.831229654238946
2,1, 1, 1, 0,20,45.00,60.00,Tuesday
7,-1.1
8,0.0
9,0.0
10,0.0
11,0.0
12,0.0
13,0.0
14,5.5512919339466439
15,-2.0298083790125487
16,5.010386936794873
17,-1.8425049537191854
18,5.818606763927126
2,1, 1, 1, 0,21, 0.00,15.00,Tuesday
7,-1.25
8,0.0
9,0.0
10,0.0
11,0.0
12,0.0
13,0.0
14,5.507823621197458
15,-2.3117232282869439
16,4.976587554091054
17,-2.047531197753756
18,5.801628629512595
2,1, 1, 1, 0,21,15.00,30.00,Tuesday
7,-1.4
8,0.0
9,0.0
10,0.0
11,0.0
12,0.0
13,0.0
14,5.4656384846434
15,-2.5286723147240179
16,4.930922733943703
17,-2.207226130733602
18,5.7758435130458409
2,1, 1, 1, 0,21,30.00,45.00,Tuesday
7,-1.5499999999999999
8,0.0
9,0.0
10,0.0
11,0.0
12,0.0
13,0.0
14,5.409887893933225
15,-2.8740322602361858
16,4.873451171219642
17,-2.4352316723459355
18,5.7400915381379209
2,1, 1, 1, 0,21,45.00,60.00,Tuesday
7,-1.7
8,0.0
9,0.0
10,0.0
11,0.0
12,0.0
13,0.0
14,5.348723725242276
15,-3.3271204104880249
16,4.803764332250125
17,-2.6939536207165135
18,5.696155030376016
2,1, 1, 1, 0,22, 0.00,15.00,Tuesday
7,-1.5499999999999999
8,0.0
9,0.0
10,0.0
11,0.0
12,0.0
13,0.0
14,5.356957165644609
15,-2.83810110412169
16,4.790253576476061
17,-2.4148603491493079
18,5.65770033730096
2,1, 1, 1, 0,22,15.00,30.00,Tuesday
7,-1.4
8,0.0
9,0.0
10,0.0
11,0.0
12,0.0
13,0.0
14,5.354438965758513
15,-2.50690868250925
16,4.801932923794823
17,-2.196958343369431
18,5.632153745742433
2,1, 1, 1, 0,22,30.00,45.00,Tuesday
7,-1.25
8,0.0
9,0.0
10,0.0
11,0.0
12,0.0
13,0.0
14,5.351057696684791
15,-2.2862905713581198
16,4.8095603175826799
17,-2.0350606381168747
18,5.617312653283206
2,1, 1, 1, 0,22,45.00,60.00,Tuesday
7,-1.1
8,0.0
9,0.0
10,0.0
11,0.0
12,0.0
13,0.0
14,5.351660722510618
15,-2.002945048029774
16,4.822778872573679
17,-1.8218840085062312
18,5.608001746575279
2,1, 1, 1, 0,23, 0.00,15.00,Tuesday
7,-1.25
8,0.0
9,0.0
10,0.0
11,0.0
12,0.0
13,0.0
14,5.308559624688676
15,-2.306268104382789
16,4.780133604213688
17,-2.137639928215208
18,5.594473531944776
2,1, 1, 1, 0,23,15.00,30.00,Tuesday
7,-1.4
8,0.0
9,0.0
10,0.0
11,0.0
12,0.0
13,0.0
14,5.268139679839926
15,-2.610792350727398
16,4.718906542576576
17,-2.4554740317879579
18,5.571664814230404
2,1, 1, 1, 0,23,30.00,45.00,Tuesday
7,-1.5499999999999999
8,0.0
9,0.0
10,0.0
11,0.0
12,0.0
13,0.0
14,5.2235207478427709
15,-2.9159568694492328
16,4.656501558898185
17,-2.7730125361421189
18,5.5403715509178259
2,1, 1, 1, 0,23,45.00,60.00,Tuesday
7,-1.7
8,0.0
9,0.0
10,0.0
11,0.0
12,0.0
13,0.0
14,5.175279127454195
15,-3.2214635958365687
16,4.5903378967905159
17,-3.0905568334280817
18,5.503250165831784
2,1, 1, 1, 0,24, 0.00,15.00,Tuesday
7,-1.7
8,0.0
9,0.0
10,0.0
11,0.0
12,0.0
13,0.0
14,5.14371316765564
15,-3.2753954415094657
16,4.549021358137338
17,-3.1491810770698978
18,5.465331550613888
2,1, 1, 1, 0,24,15.00,30.00,Tuesday
7,-1.7
8,0.0
9,0.0
10,0.0
11,0.0
12,0.0
13,0.0
14,5.109119132542721
15,-3.330003305471309
16,4.513077037010021
17,-3.2109711252680315
18,5.429402202618506
2,1, 1, 1, 0,24,30.00,45.00,Tuesday
7,-1.7
8,0.0
9,0.0
10,0.0
11,0.0
12,0.0
13,0.0
14,5.075380173902189
15,-3.384474759872952
16,4.476465345081408
17,-3.272959332112009
18,5.395548221492311
2,1, 1, 1, 0,24,45.00,60.00,Tuesday
7,-1.7
8,0.0
9,0.0
10,0.0
11,0.0
12,0.0
13,0.0
14,5.042286472777594
15,-3.438950169070325
16,4.440588525385351
17,-3.3348280275209847
18,5.362939147125646
End of Data
 Number of Records Written=        1152
