Program Version,EnergyPlus, Version 9.5.0-de239b2e5f, YMD=2023.02.16 18:15
1,5,Environment Title[],Latitude[deg],Longitude[deg],Time Zone[],Elevation[m]
2,8,Day of Simulation[],Month[],Day of Month[],DST Indicator[1=yes 0=no],Hour[],StartMinute[],EndMinute[],DayType
3,5,Cumulative Day of Simulation[],Month[],Day of Month[],DST Indicator[1=yes 0=no],DayType  ! When Daily Report Variables Requested
4,2,Cumulative Days of Simulation[],Month[]  ! When Monthly Report Variables Requested
5,1,Cumulative Days of Simulation[] ! When Run Period Report Variables Requested
6,1,Calendar Year of Simulation[] ! When Annual Report Variables Requested
7,1,Environment,Site Outdoor Air Drybulb Temperature [C] !TimeStep
8,1,ZONE ONE,Zone Windows Total Transmitted Solar Radiation Rate [W] !TimeStep
9,1,ZN001:WALL001,Surface Outside Face Sunlit Fraction [] !TimeStep
10,1,ZN001:WALL001,Surface Outside Face Incident Solar Radiation Rate per Area [W/m2] !TimeStep
11,1,ZN001:WALL001:WIN001,Surface Outside Face Sunlit Fraction [] !TimeStep
12,1,ZN001:WALL001:WIN001,Surface Outside Face Incident Solar Radiation Rate per Area [W/m2] !TimeStep
13,1,ZN001:WALL001:WIN001,Surface Window Transmitted Solar Radiation Rate [W] !TimeStep
14,1,ZN001:WALL001,Surface Inside Face Temperature [C] !TimeStep
15,1,ZN001:WALL001,Surface Outside Face Temperature [C] !TimeStep
16,1,ZN001:WALL001:WIN001,Surface Inside Face Temperature [C] !TimeStep
17,1,ZN001:WALL001:WIN001,Surface Outside Face Temperature [C] !TimeStep
18,1,ZONE ONE,Zone Mean Air Temperature [C] !TimeStep
End of Data Dictionary
1,RUN PERIOD 1,  41.98, -87.92,  -6.00, 201.00
2,1, 1, 1, 0, 1, 0.00,15.00,Tuesday
7,-4.324999999999999
8,0.0
9,0.0
10,0.0
11,0.0
12,0.0
13,0.0
14,0.5307335828697765
15,-5.994412314730067
16,0.16962720140463717
17,-6.01153155764348
18,0.8594181825621206
2,1, 1, 1, 0, 1,15.00,30.00,Tuesday
7,-6.949999999999999
8,0.0
9,0.0
10,0.0
11,0.0
12,0.0
13,0.0
14,0.3648910730807009
15,-8.462357826887378
16,-0.13896008423694185
17,-8.336082338320125
18,0.7905575195437496
2,1, 1, 1, 0, 1,30.00,45.00,Tuesday
7,-9.575
8,0.0
9,0.0
10,0.0
11,0.0
12,0.0
13,0.0
14,0.1826860141709482
15,-10.938606240556311
16,-0.4483469886486091
17,-10.66784324501748
18,0.6927403099829304
2,1, 1, 1, 0, 1,45.00,60.00,Tuesday
7,-12.2
8,0.0
9,0.0
10,0.0
11,0.0
12,0.0
13,0.0
14,-0.012910274152175083
15,-13.421386466934966
16,-0.7712933716507564
17,-13.008470441143004
18,0.5734808138369388
2,1, 1, 1, 0, 2, 0.00,15.00,Tuesday
7,-12.075
8,0.0
9,0.0
10,0.0
11,0.0
12,0.0
13,0.0
14,-0.05528632147961276
15,-13.222953796070213
16,-0.8641030732969739
17,-12.868528340822309
18,0.46378060441452048
2,1, 1, 1, 0, 2,15.00,30.00,Tuesday
7,-11.95
8,0.0
9,0.0
10,0.0
11,0.0
12,0.0
13,0.0
14,-0.11324594279978431
15,-13.04542845935032
16,-0.9049766946689033
17,-12.682375449594588
18,0.38016231358614696
2,1, 1, 1, 0, 2,30.00,45.00,Tuesday
7,-11.825
8,0.0
9,0.0
10,0.0
11,0.0
12,0.0
13,0.0
14,-0.15689657829598167
15,-12.866790386729301
16,-0.9421766445959747
17,-12.504915240316223
18,0.32001687627741179
2,1, 1, 1, 0, 2,45.00,60.00,Tuesday
7,-11.7
8,0.0
9,0.0
10,0.0
11,0.0
12,0.0
13,0.0
14,-0.19064284677837396
15,-12.688206322046183
16,-0.9677171464509797
17,-12.32669082496193
18,0.2747950564885067
2,1, 1, 1, 0, 3, 0.00,15.00,Tuesday
7,-11.549999999999999
8,0.0
9,0.0
10,0.0
11,0.0
12,0.0
13,0.0
14,-0.22346634723830664
15,-12.564234649328771
16,-0.9891569999360286
17,-12.202379304906117
18,0.23661026682736986
2,1, 1, 1, 0, 3,15.00,30.00,Tuesday
7,-11.399999999999999
8,0.0
9,0.0
10,0.0
11,0.0
12,0.0
13,0.0
14,-0.25205985617203999
15,-12.44171238946121
16,-1.0099508286227775
17,-12.072137999296615
18,0.2012427329626935
2,1, 1, 1, 0, 3,30.00,45.00,Tuesday
7,-11.25
8,0.0
9,0.0
10,0.0
11,0.0
12,0.0
13,0.0
14,-0.2806638714245963
15,-12.320854838373967
16,-1.028463953387643
17,-11.942128881977397
18,0.16712642164150832
2,1, 1, 1, 0, 3,45.00,60.00,Tuesday
7,-11.1
8,0.0
9,0.0
10,0.0
11,0.0
12,0.0
13,0.0
14,-0.3086807428269505
15,-12.201652851319338
16,-1.046591500013676
17,-11.812928498266956
18,0.13382117451266777
2,1, 1, 1, 0, 4, 0.00,15.00,Tuesday
7,-11.1
8,0.0
9,0.0
10,0.0
11,0.0
12,0.0
13,0.0
14,-0.33977649394082229
15,-12.170028536537974
16,-1.0763883078865889
17,-11.795624207966285
18,0.10092167855734724
2,1, 1, 1, 0, 4,15.00,30.00,Tuesday
7,-11.1
8,0.0
9,0.0
10,0.0
11,0.0
12,0.0
13,0.0
14,-0.3705219747339529
15,-12.139621064826587
16,-1.1073285410370773
17,-11.787391422887652
18,0.06822164386366433
2,1, 1, 1, 0, 4,30.00,45.00,Tuesday
7,-11.1
8,0.0
9,0.0
10,0.0
11,0.0
12,0.0
13,0.0
14,-0.4011814925245678
15,-12.110892276067143
16,-1.1356811464048633
17,-11.776508994430742
18,0.0356294037778247
2,1, 1, 1, 0, 4,45.00,60.00,Tuesday
7,-11.1
8,0.0
9,0.0
10,0.0
11,0.0
12,0.0
13,0.0
14,-0.4318060677188216
15,-12.083711756176326
16,-1.1643240735765517
17,-11.765508831177499
18,0.0031272847625482878
2,1, 1, 1, 0, 5, 0.00,15.00,Tuesday
7,-10.975
8,0.0
9,0.0
10,0.0
11,0.0
12,0.0
13,0.0
14,-0.4570859375645523
15,-11.961294268632253
16,-1.1801435026870309
17,-11.652231253762352
18,-0.02865685332975006
2,1, 1, 1, 0, 5,15.00,30.00,Tuesday
7,-10.85
8,0.0
9,0.0
10,0.0
11,0.0
12,0.0
13,0.0
14,-0.4822325527378363
15,-11.83898783787924
16,-1.1967575048189474
17,-11.537381327251524
18,-0.059339107017138657
2,1, 1, 1, 0, 5,30.00,45.00,Tuesday
7,-10.725
8,0.0
9,0.0
10,0.0
11,0.0
12,0.0
13,0.0
14,-0.5066662145540155
15,-11.71666943444744
16,-1.212920779198214
17,-11.422399575417785
18,-0.08899279075477337
2,1, 1, 1, 0, 5,45.00,60.00,Tuesday
7,-10.6
8,0.0
9,0.0
10,0.0
11,0.0
12,0.0
13,0.0
14,-0.5304530592840915
15,-11.594361507327145
16,-1.2284254879333503
17,-11.307374266168154
18,-0.11784467805422214
2,1, 1, 1, 0, 6, 0.00,15.00,Tuesday
7,-10.6
8,0.0
9,0.0
10,0.0
11,0.0
12,0.0
13,0.0
14,-0.5614048100203883
15,-11.595023569963898
16,-1.258064201176012
17,-11.304827817440469
18,-0.14710524353907804
2,1, 1, 1, 0, 6,15.00,30.00,Tuesday
7,-10.6
8,0.0
9,0.0
10,0.0
11,0.0
12,0.0
13,0.0
14,-0.5918689307027658
15,-11.595591177831232
16,-1.2871590193220755
17,-11.305674294144524
18,-0.17747324264439758
2,1, 1, 1, 0, 6,30.00,45.00,Tuesday
7,-10.6
8,0.0
9,0.0
10,0.0
11,0.0
12,0.0
13,0.0
14,-0.6227688749691335
15,-11.596193775668887
16,-1.3161933789222645
17,-11.307416977331286
18,-0.20882538117888684
2,1, 1, 1, 0, 6,45.00,60.00,Tuesday
7,-10.6
8,0.0
9,0.0
10,0.0
11,0.0
12,0.0
13,0.0
14,-0.6540018327711911
15,-11.596798457989069
16,-1.345604021827853
17,-11.30943315985644
18,-0.2407686361871911
2,1, 1, 1, 0, 7, 0.00,15.00,Tuesday
7,-10.6
8,0.0
9,0.0
10,0.0
11,0.0
12,0.0
13,0.0
14,-0.6829997452142556
15,-11.570759620341564
16,-1.3731104246070914
17,-11.301236299601669
18,-0.27257471209538777
2,1, 1, 1, 0, 7,15.00,30.00,Tuesday
7,-10.6
8,0.0
9,0.0
10,0.0
11,0.0
12,0.0
13,0.0
14,-0.7121399685162775
15,-11.546066711550692
16,-1.4000067002473884
17,-11.290822345485936
18,-0.30385421936746706
2,1, 1, 1, 0, 7,30.00,45.00,Tuesday
7,-10.6
8,0.0
9,0.0
10,0.0
11,0.0
12,0.0
13,0.0
14,-0.7410411932579356
15,-11.522624853712886
16,-1.4270187109282234
17,-11.280181152339197
18,-0.3346288236535334
2,1, 1, 1, 0, 7,45.00,60.00,Tuesday
7,-10.6
8,0.0
9,0.0
10,0.0
11,0.0
12,0.0
13,0.0
14,-0.7696743166372019
15,-11.500358094561415
16,-1.4538101113726612
17,-11.269742587321162
18,-0.36503811967159008
2,1, 1, 1, 0, 8, 0.00,15.00,Tuesday
7,-10.45
8,0.0
9,0.0
10,0.0
11,0.0
12,0.0
13,0.0
14,-0.7994414711126435
15,-11.452886133877069
16,-1.4757916072366584
17,-11.230058576843817
18,-0.39575659893665207
2,1, 1, 1, 0, 8,15.00,30.00,Tuesday
7,-10.3
8,43.92919895502562
9,1.0
10,22.819555959623899
11,1.0
12,22.819555959623899
13,43.92919895502562
14,-0.7324719563349877
15,-9.780404401506692
16,-1.0773913074564235
17,-10.894582472570847
18,-0.414331740005186
2,1, 1, 1, 0, 8,30.00,45.00,Tuesday
7,-10.15
8,217.30754917639187
9,1.0
10,109.75755355442667
11,1.0
12,109.75755355442667
13,217.30754917639187
14,-0.40063570214685625
15,-3.4250626395822647
16,0.6179240585539674
17,-9.675857436730212
18,-0.3873034445950691
2,1, 1, 1, 0, 8,45.00,60.00,Tuesday
7,-10.0
8,399.4699535945363
9,1.0
10,195.8764694434918
11,1.0
12,195.8764694434918
13,399.4699535945363
14,0.015674936111914726
15,3.079046724968511
16,2.1889559296974996
17,-8.435946379375764
18,-0.3052894459769155
2,1, 1, 1, 0, 9, 0.00,15.00,Tuesday
7,-9.725
8,585.1489314874541
9,1.0
10,278.97248314719988
11,1.0
12,278.97248314719988
13,585.1489314874541
14,0.31006734436841107
15,8.250678719299695
16,3.6413530168164245
17,-7.346862281431186
18,-0.17408312087299855
2,1, 1, 1, 0, 9,15.00,30.00,Tuesday
7,-9.45
8,784.787199245388
9,1.0
10,364.91995730569456
11,1.0
12,364.91995730569456
13,784.787199245388
14,0.6640970315108005
15,13.333163469649179
16,5.098323816405241
17,-6.2696993382105579
18,-0.006201320389817411
2,1, 1, 1, 0, 9,30.00,45.00,Tuesday
7,-9.175
8,921.7412871041541
9,1.0
10,420.35879993239237
11,1.0
12,420.35879993239237
13,921.7412871041541
14,0.8908832008147594
15,16.09266799499077
16,6.086096855275059
17,-5.610637416003726
18,0.18021961340593505
2,1, 1, 1, 0, 9,45.00,60.00,Tuesday
7,-8.9
8,1065.0474005418728
9,1.0
10,478.00138373643099
11,1.0
12,478.00138373643099
13,1065.0474005418728
14,1.159689537324491
15,19.08845802311109
16,7.071898367238305
17,-4.922102425381695
18,0.38126058334898507
2,1, 1, 1, 0,10, 0.00,15.00,Tuesday
7,-8.350000000000002
8,1212.3134782022194
9,1.0
10,536.9185644770597
11,1.0
12,536.9185644770597
13,1212.3134782022194
14,1.3675200427622623
15,20.209825666633369
16,8.091000142979852
17,-4.096075927776042
18,0.5947932520305007
2,1, 1, 1, 0,10,15.00,30.00,Tuesday
7,-7.800000000000001
8,1365.083720287943
9,1.0
10,598.0969199229219
11,1.0
12,598.0969199229219
13,1365.083720287943
14,1.596952351674903
15,21.46571113762999
16,9.13520014644655
17,-3.2972405832741744
18,0.8170349801233056
2,1, 1, 1, 0,10,30.00,45.00,Tuesday
7,-7.25
8,1468.1999493442264
9,1.0
10,637.6133352894237
11,1.0
12,637.6133352894237
13,1468.1999493442264
14,1.7597063269546423
15,21.527973011218724
16,9.871448512380426
17,-2.727902540143816
18,1.0358508638728612
2,1, 1, 1, 0,10,45.00,60.00,Tuesday
7,-6.7
8,1569.705828175432
9,1.0
10,676.6412284283772
11,1.0
12,676.6412284283772
13,1569.705828175432
14,1.9359405889921822
15,21.690203199020304
16,10.577715098060935
17,-2.1633583902982425
18,1.244903142245838
2,1, 1, 1, 0,11, 0.00,15.00,Tuesday
7,-6.275
8,1669.2149873773784
9,1.0
10,715.0112779846514
11,1.0
12,715.0112779846514
13,1669.2149873773784
14,2.1902531232979429
15,23.78731943170844
16,11.281024317864194
17,-1.4346712437088059
18,1.447801329090768
2,1, 1, 1, 0,11,15.00,30.00,Tuesday
7,-5.85
8,1766.190944948854
9,1.0
10,752.5077794605232
11,1.0
12,752.5077794605232
13,1766.190944948854
14,2.425793085384944
15,25.721803199253789
16,11.97206970296645
17,-0.7178575705931394
18,1.6487846939031686
2,1, 1, 1, 0,11,30.00,45.00,Tuesday
7,-5.425
8,1740.4832380327117
9,1.0
10,742.5988714321785
11,1.0
12,742.5988714321785
13,1740.4832380327117
14,2.5491231955174569
15,25.573326816845247
16,12.011499355516492
17,-0.414634938964241
18,1.8346197207442497
2,1, 1, 1, 0,11,45.00,60.00,Tuesday
7,-5.0
8,1702.0518597121073
9,1.0
10,727.8169025450712
11,1.0
12,727.8169025450712
13,1702.0518597121073
14,2.667800464387593
15,25.343422181153597
16,11.95722316004128
17,-0.14288770717786293
18,1.9964746629616497
2,1, 1, 1, 0,12, 0.00,15.00,Tuesday
7,-4.575
8,1635.6982778457269
9,1.0
10,700.3759009170325
11,1.0
12,700.3759009170325
13,1635.6982778457269
14,2.7428570162269416
15,24.600229944146304
16,11.72385474434202
17,0.07035981597476848
18,2.1304847518861855
2,1, 1, 1, 0,12,15.00,30.00,Tuesday
7,-4.15
8,1584.1822507707826
9,1.0
10,681.6705029034473
11,1.0
12,681.6705029034473
13,1584.1822507707826
14,2.83403026589395
15,24.269214609332356
16,11.590246782917859
17,0.35511858905147167
18,2.242810072468338
2,1, 1, 1, 0,12,30.00,45.00,Tuesday
7,-3.7249999999999998
8,1386.7884648429923
9,1.0
10,602.01865277251
11,1.0
12,602.01865277251
13,1386.7884648429923
14,2.740622046590324
15,21.240522533488144
16,10.616484627961029
17,0.155022458188796
18,2.3194213734736239
2,1, 1, 1, 0,12,45.00,60.00,Tuesday
7,-3.3
8,1130.2896420139664
9,1.0
10,493.55004396206007
11,1.0
12,493.55004396206007
13,1130.2896420139664
14,2.562071276460098
15,17.061310946118434
16,9.15902574897126
17,-0.31756243302731948
18,2.3457104206413934
2,1, 1, 1, 0,13, 0.00,15.00,Tuesday
7,-3.0249999999999996
8,926.9697700398867
9,1.0
10,412.335026418112
11,1.0
12,412.335026418112
13,926.9697700398867
14,2.448085069919422
15,14.21588978154024
16,8.010638151651108
17,-0.6342524206273197
18,2.325697014099488
2,1, 1, 1, 0,13,15.00,30.00,Tuesday
7,-2.75
8,673.6692877186736
9,1.0
10,305.94037763660148
11,1.0
12,305.94037763660148
13,673.6692877186736
14,2.2175374366212226
15,10.041243377090265
16,6.459151663685134
17,-1.1805384310579257
18,2.264883217094876
2,1, 1, 1, 0,13,30.00,45.00,Tuesday
7,-2.475
8,612.4821658219637
9,1.0
10,281.0763483922329
11,1.0
12,281.0763483922329
13,612.4821658219637
14,2.1924636032241326
15,9.529203377124077
16,6.064365941230108
17,-1.049603517282094
18,2.197478606547036
2,1, 1, 1, 0,13,45.00,60.00,Tuesday
7,-2.2
8,552.552520277972
9,1.0
10,256.7721209415886
11,1.0
12,256.7721209415886
13,552.552520277972
14,2.159589636068312
15,8.91960554564748
16,5.71301079071327
17,-0.8969500473600078
18,2.1439346324284629
2,1, 1, 1, 0,14, 0.00,15.00,Tuesday
7,-1.9250000000000003
8,449.8411357962977
9,1.0
10,210.73276284570657
11,1.0
12,210.73276284570657
13,449.8411357962977
14,2.0666674241105329
15,7.3703472582890419
16,5.013781927565901
17,-0.9835096670249754
18,2.0989360985169744
2,1, 1, 1, 0,14,15.00,30.00,Tuesday
7,-1.6500000000000002
8,396.7537665575463
9,1.0
10,189.38488290342594
11,1.0
12,189.38488290342594
13,396.7537665575463
14,2.0476423114997925
15,6.965761591152128
16,4.6772681803590789
17,-0.8693931478147761
18,2.061636246302784
2,1, 1, 1, 0,14,30.00,45.00,Tuesday
7,-1.375
8,379.3266897359249
9,1.0
10,179.3940297802914
11,1.0
12,179.3940297802914
13,379.3266897359249
14,2.0509360077450609
15,7.085051835951726
16,4.541948158866035
17,-0.6438220016675587
18,2.03323919397407
2,1, 1, 1, 0,14,45.00,60.00,Tuesday
7,-1.1
8,361.3465167603399
9,1.0
10,169.43349014176136
11,1.0
12,169.43349014176136
13,361.3465167603399
14,2.055099785615855
15,7.18193035646204
16,4.406577574843368
17,-0.41875344361676528
18,2.012569808445049
2,1, 1, 1, 0,15, 0.00,15.00,Tuesday
7,-1.1
8,379.75098608822659
9,1.0
10,178.15692317953907
11,1.0
12,178.15692317953907
13,379.75098608822659
14,2.0988575366610715
15,7.996023639672828
16,4.5455406851053798
17,-0.3070721883895544
18,2.001584315902105
2,1, 1, 1, 0,15,15.00,30.00,Tuesday
7,-1.1
8,356.65544888641286
9,1.0
10,166.40516310952945
11,1.0
12,166.40516310952945
13,356.65544888641286
14,2.068771404950375
15,7.63157576974759
16,4.365138478535641
17,-0.3961013345669926
18,1.9937973368069904
2,1, 1, 1, 0,15,30.00,45.00,Tuesday
7,-1.1
8,299.30897077907687
9,1.0
10,140.8967369711617
11,1.0
12,140.8967369711617
13,299.30897077907687
14,1.9893075572930388
15,6.423008673795518
16,3.937848949327872
17,-0.6677519980697753
18,1.9780595687079539
2,1, 1, 1, 0,15,45.00,60.00,Tuesday
7,-1.1
8,245.01101588106585
9,1.0
10,116.57355796743004
11,1.0
12,116.57355796743004
13,245.01101588106585
14,1.9006051980415207
15,5.208622516446124
16,3.508692634907902
17,-0.9447123685612269
18,1.9491296351072847
2,1, 1, 1, 0,16, 0.00,15.00,Tuesday
7,-1.1
8,193.3619366811613
9,1.0
10,93.14939272689483
11,1.0
12,93.14939272689483
13,193.3619366811613
14,1.8225500256018064
15,4.152788102248818
16,3.0851842531068316
17,-1.1604121587735108
18,1.9081293785264376
2,1, 1, 1, 0,16,15.00,30.00,Tuesday
7,-1.1
8,119.36636342751545
9,1.0
10,57.94047897402063
11,1.0
12,57.94047897402063
13,119.36636342751545
14,1.6757670199291999
15,2.0208397340063208
16,2.4305191800832519
17,-1.5685620599044797
18,1.8521127644907887
2,1, 1, 1, 0,16,30.00,45.00,Tuesday
7,-1.1
8,91.9639739168048
9,1.0
10,45.38251793443488
11,1.0
12,45.38251793443488
13,91.9639739168048
14,1.6220394570424764
15,1.4014153107335552
16,2.144766239514638
17,-1.6963644069147677
18,1.7887395953412154
2,1, 1, 1, 0,16,45.00,60.00,Tuesday
7,-1.1
8,63.83988587375654
9,1.0
10,32.02625108222755
11,1.0
12,32.02625108222755
13,63.83988587375654
14,1.538939842029648
15,0.527350752591072
16,1.8489170814314662
17,-1.8579929569137904
18,1.7239296645452767
2,1, 1, 1, 0,17, 0.00,15.00,Tuesday
7,-1.1
8,34.880124245395318
9,1.0
10,17.762198626050539
11,1.0
12,17.762198626050539
13,34.880124245395318
14,1.4280876414834898
15,-0.7387393198269739
16,1.5031499192634784
17,-2.1554902475021437
18,1.6557925710034903
2,1, 1, 1, 0,17,15.00,30.00,Tuesday
7,-1.1
8,0.0
9,0.0
10,0.0
11,0.0
12,0.0
13,0.0
14,1.271689065906621
15,-2.5821047915535697
16,1.1027429937931857
17,-2.4441397207290267
18,1.5742212005128749
2,1, 1, 1, 0,17,30.00,45.00,Tuesday
7,-1.1
8,0.0
9,0.0
10,0.0
11,0.0
12,0.0
13,0.0
14,1.2327640292847675
15,-2.7242708032280005
16,1.0149902793093589
17,-2.5376965598510425
18,1.4882704893201786
2,1, 1, 1, 0,17,45.00,60.00,Tuesday
7,-1.1
8,0.0
9,0.0
10,0.0
11,0.0
12,0.0
13,0.0
14,1.1767399804627393
15,-2.9270380256689418
16,0.9627728499934847
17,-2.64468043211275
18,1.412307778533094
2,1, 1, 1, 0,18, 0.00,15.00,Tuesday
7,-1.25
8,0.0
9,0.0
10,0.0
11,0.0
12,0.0
13,0.0
14,1.1318437929792509
15,-3.0733212157420417
16,0.8997139604275048
17,-2.7975689099512239
18,1.3514248400019105
2,1, 1, 1, 0,18,15.00,30.00,Tuesday
7,-1.4
8,0.0
9,0.0
10,0.0
11,0.0
12,0.0
13,0.0
14,1.092211698338351
15,-3.2256667528730489
16,0.8543789933185053
17,-2.938954580846371
18,1.3037009020728639
2,1, 1, 1, 0,18,30.00,45.00,Tuesday
7,-1.5499999999999999
8,0.0
9,0.0
10,0.0
11,0.0
12,0.0
13,0.0
14,1.0560150586273308
15,-3.377358824938401
16,0.8088733453791974
17,-3.084373980153714
18,1.264865587686508
2,1, 1, 1, 0,18,45.00,60.00,Tuesday
7,-1.7
8,0.0
9,0.0
10,0.0
11,0.0
12,0.0
13,0.0
14,1.0226747715083662
15,-3.5291133245835977
16,0.7663904637591941
17,-3.229282256858369
18,1.2312971919353127
2,1, 1, 1, 0,19, 0.00,15.00,Tuesday
7,-1.825
8,0.0
9,0.0
10,0.0
11,0.0
12,0.0
13,0.0
14,1.0174735551866499
15,-3.3636720080372419
16,0.7414029050028148
17,-3.1941136183941127
18,1.2043388417970027
2,1, 1, 1, 0,19,15.00,30.00,Tuesday
7,-1.9500000000000002
8,0.0
9,0.0
10,0.0
11,0.0
12,0.0
13,0.0
14,1.0131828702279553
15,-3.2816781483673127
16,0.7289991252459913
17,-3.1919289027572406
18,1.1854714866751315
2,1, 1, 1, 0,19,30.00,45.00,Tuesday
7,-2.075
8,0.0
9,0.0
10,0.0
11,0.0
12,0.0
13,0.0
14,1.0034296152295049
15,-3.3513255721312067
16,0.7154521492594768
17,-3.275703138655274
18,1.1730425097118478
2,1, 1, 1, 0,19,45.00,60.00,Tuesday
7,-2.2
8,0.0
9,0.0
10,0.0
11,0.0
12,0.0
13,0.0
14,0.9960062722281254
15,-3.3156646354484264
16,0.7056020691243248
17,-3.289758817660868
18,1.1639197285265646
2,1, 1, 1, 0,20, 0.00,15.00,Tuesday
7,-1.9250000000000003
8,0.0
9,0.0
10,0.0
11,0.0
12,0.0
13,0.0
14,1.0046541020205449
15,-3.0110296905384219
16,0.7300554159883177
17,-3.010532751020321
18,1.15722884540568
2,1, 1, 1, 0,20,15.00,30.00,Tuesday
7,-1.6500000000000002
8,0.0
9,0.0
10,0.0
11,0.0
12,0.0
13,0.0
14,1.0137480998697808
15,-2.709799328813224
16,0.7563196761478821
17,-2.731211141936228
18,1.1529282890222246
2,1, 1, 1, 0,20,30.00,45.00,Tuesday
7,-1.375
8,0.0
9,0.0
10,0.0
11,0.0
12,0.0
13,0.0
14,1.0239889153060618
15,-2.4100080614232777
16,0.7837304825476394
17,-2.4521046843440219
18,1.1507593461192063
2,1, 1, 1, 0,20,45.00,60.00,Tuesday
7,-1.1
8,0.0
9,0.0
10,0.0
11,0.0
12,0.0
13,0.0
14,1.0360340581710946
15,-2.111619769744997
16,0.8123632409989341
17,-2.1732029792610207
18,1.1503749268198389
2,1, 1, 1, 0,21, 0.00,15.00,Tuesday
7,-1.25
8,0.0
9,0.0
10,0.0
11,0.0
12,0.0
13,0.0
14,1.0038494117899908
15,-2.406585199045327
16,0.7867120396939527
17,-2.41485836232755
18,1.1466037483258296
2,1, 1, 1, 0,21,15.00,30.00,Tuesday
7,-1.4
8,0.0
9,0.0
10,0.0
11,0.0
12,0.0
13,0.0
14,0.9693924904760159
15,-2.63043646243334
16,0.7495084811025663
17,-2.596036149078998
18,1.1347216852976947
2,1, 1, 1, 0,21,30.00,45.00,Tuesday
7,-1.5499999999999999
8,0.0
9,0.0
10,0.0
11,0.0
12,0.0
13,0.0
14,0.9221433019252698
15,-2.9926484471465035
16,0.6978589613893291
17,-2.860979111508982
18,1.1127394661907027
2,1, 1, 1, 0,21,45.00,60.00,Tuesday
7,-1.7
8,0.0
9,0.0
10,0.0
11,0.0
12,0.0
13,0.0
14,0.8698948174841135
15,-3.4648951799844998
16,0.6338200732355972
17,-3.1643630477382205
18,1.0818365393473085
2,1, 1, 1, 0,22, 0.00,15.00,Tuesday
7,-1.5499999999999999
8,0.0
9,0.0
10,0.0
11,0.0
12,0.0
13,0.0
14,0.8928820619024507
15,-2.9530462635852006
16,0.6356570966203208
17,-2.8303122892729108
18,1.0549999333683276
2,1, 1, 1, 0,22,15.00,30.00,Tuesday
7,-1.4
8,0.0
9,0.0
10,0.0
11,0.0
12,0.0
13,0.0
14,0.9061966524417163
15,-2.606381360776076
16,0.6637312284717041
17,-2.573399388935968
18,1.0400312766236005
2,1, 1, 1, 0,22,30.00,45.00,Tuesday
7,-1.25
8,0.0
9,0.0
10,0.0
11,0.0
12,0.0
13,0.0
14,0.9175944351363298
15,-2.378817007714471
16,0.6853818523468362
17,-2.387497569916377
18,1.0356795050546948
2,1, 1, 1, 0,22,45.00,60.00,Tuesday
7,-1.1
8,0.0
9,0.0
10,0.0
11,0.0
12,0.0
13,0.0
14,0.9325586162788863
15,-2.0829459834887307
16,0.7147980491653243
17,-2.145434496511598
18,1.0374627344925267
2,1, 1, 1, 0,23, 0.00,15.00,Tuesday
7,-1.25
8,0.0
9,0.0
10,0.0
11,0.0
12,0.0
13,0.0
14,0.9013759571416817
15,-2.3868040955908409
16,0.6839250461023312
17,-2.4631762234307077
18,1.0367528018414128
2,1, 1, 1, 0,23,15.00,30.00,Tuesday
7,-1.4
8,0.0
9,0.0
10,0.0
11,0.0
12,0.0
13,0.0
14,0.86992745325816
15,-2.691352228116318
16,0.6336469431506657
17,-2.781191891624644
18,1.0280608642720675
2,1, 1, 1, 0,23,30.00,45.00,Tuesday
7,-1.5499999999999999
8,0.0
9,0.0
10,0.0
11,0.0
12,0.0
13,0.0
14,0.8357902210132143
15,-2.9963570747792276
16,0.581848789635842
17,-3.0990043600370997
18,1.0110884538453693
2,1, 1, 1, 0,23,45.00,60.00,Tuesday
7,-1.7
8,0.0
9,0.0
10,0.0
11,0.0
12,0.0
13,0.0
14,0.7984923698862844
15,-3.3017301114833748
16,0.5271404602257803
17,-3.4167958571918008
18,0.9877894677409747
2,1, 1, 1, 0,24, 0.00,15.00,Tuesday
7,-1.7
8,0.0
9,0.0
10,0.0
11,0.0
12,0.0
13,0.0
14,0.7780132330273097
15,-3.355269389028134
16,0.49725958689418806
17,-3.473681707174137
18,0.9626574984597593
2,1, 1, 1, 0,24,15.00,30.00,Tuesday
7,-1.7
8,0.0
9,0.0
10,0.0
11,0.0
12,0.0
13,0.0
14,0.7555337881947944
15,-3.409631059118855
16,0.4725189425969347
17,-3.534559717991044
18,0.9386608773544806
2,1, 1, 1, 0,24,30.00,45.00,Tuesday
7,-1.7
8,0.0
9,0.0
10,0.0
11,0.0
12,0.0
13,0.0
14,0.7333905766285525
15,-3.463913269927015
16,0.4472277696679612
17,-3.5956438217102688
18,0.9163520055293626
2,1, 1, 1, 0,24,45.00,60.00,Tuesday
7,-1.7
8,0.0
9,0.0
10,0.0
11,0.0
12,0.0
13,0.0
14,0.7116852978955701
15,-3.518190110137586
16,0.42234414726056
17,-3.656647566486015
18,0.8952209849319893
End of Data
 Number of Records Written=        1152
