Program Version,EnergyPlus, Version 9.5.0-de239b2e5f, YMD=2023.02.16 18:16
1,5,Environment Title[],Latitude[deg],Longitude[deg],Time Zone[],Elevation[m]
2,8,Day of Simulation[],Month[],Day of Month[],DST Indicator[1=yes 0=no],Hour[],StartMinute[],EndMinute[],DayType
3,5,Cumulative Day of Simulation[],Month[],Day of Month[],DST Indicator[1=yes 0=no],DayType  ! When Daily Report Variables Requested
4,2,Cumulative Days of Simulation[],Month[]  ! When Monthly Report Variables Requested
5,1,Cumulative Days of Simulation[] ! When Run Period Report Variables Requested
6,1,Calendar Year of Simulation[] ! When Annual Report Variables Requested
7,1,Environment,Site Outdoor Air Drybulb Temperature [C] !TimeStep
8,1,ZONE ONE,Zone Windows Total Transmitted Solar Radiation Rate [W] !TimeStep
9,1,ZN001:WALL001,Surface Outside Face Sunlit Fraction [] !TimeStep
10,1,ZN001:WALL001,Surface Outside Face Incident Solar Radiation Rate per Area [W/m2] !TimeStep
11,1,ZN001:WALL001:WIN001,Surface Outside Face Sunlit Fraction [] !TimeStep
12,1,ZN001:WALL001:WIN001,Surface Outside Face Incident Solar Radiation Rate per Area [W/m2] !TimeStep
13,1,ZN001:WALL001:WIN001,Surface Window Transmitted Solar Radiation Rate [W] !TimeStep
14,1,ZN001:WALL001,Surface Inside Face Temperature [C] !TimeStep
15,1,ZN001:WALL001,Surface Outside Face Temperature [C] !TimeStep
16,1,ZN001:WALL001:WIN001,Surface Inside Face Temperature [C] !TimeStep
17,1,ZN001:WALL001:WIN001,Surface Outside Face Temperature [C] !TimeStep
18,1,ZONE ONE,Zone Mean Air Temperature [C] !TimeStep
End of Data Dictionary
1,RUN PERIOD 1,  41.98, -87.92,  -6.00, 201.00
2,1, 1, 1, 0, 1, 0.00,15.00,Tuesday
7,-4.324999999999999
8,0.0
9,0.0
10,0.0
11,0.0
12,0.0
13,0.0
14,3.764386252076369
15,-5.935324091916632
16,3.184201609326692
17,-5.761182543455504
18,4.187237060342992
2,1, 1, 1, 0, 1,15.00,30.00,Tuesday
7,-6.949999999999999
8,0.0
9,0.0
10,0.0
11,0.0
12,0.0
13,0.0
14,3.5948633472622095
15,-8.402937378444621
16,2.870181697251496
17,-8.078259869411739
18,4.108501419247043
2,1, 1, 1, 0, 1,30.00,45.00,Tuesday
7,-9.575
8,0.0
9,0.0
10,0.0
11,0.0
12,0.0
13,0.0
14,3.4083762990598096
15,-10.878503636125587
16,2.5526939952256955
17,-10.402907563778229
18,4.001639193707427
2,1, 1, 1, 0, 1,45.00,60.00,Tuesday
7,-12.2
8,0.0
9,0.0
10,0.0
11,0.0
12,0.0
13,0.0
14,3.2082658221266859
15,-13.360637563098651
16,2.222252320088728
17,-12.746053866395983
18,3.874597218337516
2,1, 1, 1, 0, 2, 0.00,15.00,Tuesday
7,-12.075
8,0.0
9,0.0
10,0.0
11,0.0
12,0.0
13,0.0
14,3.156499776239062
15,-13.161714535705569
16,2.1215707649055846
17,-12.600643614490707
18,3.758413191683363
2,1, 1, 1, 0, 2,15.00,30.00,Tuesday
7,-11.95
8,0.0
9,0.0
10,0.0
11,0.0
12,0.0
13,0.0
14,3.0901092828996647
15,-12.984364387451063
16,2.0727014291126126
17,-12.415327970467843
18,3.668899927202946
2,1, 1, 1, 0, 2,30.00,45.00,Tuesday
7,-11.825
8,0.0
9,0.0
10,0.0
11,0.0
12,0.0
13,0.0
14,3.0383522894054026
15,-12.805927457904972
16,2.028196376337803
17,-12.238954831204297
18,3.60258899326913
2,1, 1, 1, 0, 2,45.00,60.00,Tuesday
7,-11.7
8,0.0
9,0.0
10,0.0
11,0.0
12,0.0
13,0.0
14,2.9964402926078335
15,-12.627558371055017
16,1.99545367984706
17,-12.061787545875177
18,3.5504978922200305
2,1, 1, 1, 0, 3, 0.00,15.00,Tuesday
7,-11.549999999999999
8,0.0
9,0.0
10,0.0
11,0.0
12,0.0
13,0.0
14,2.9555059194099666
15,-12.502114493404349
16,1.9671770241210425
17,-11.933793903133676
18,3.504733594517806
2,1, 1, 1, 0, 3,15.00,30.00,Tuesday
7,-11.399999999999999
8,0.0
9,0.0
10,0.0
11,0.0
12,0.0
13,0.0
14,2.9175995317793887
15,-12.37806093846212
16,1.9393257289269173
17,-11.799663269342546
18,3.461165016853474
2,1, 1, 1, 0, 3,30.00,45.00,Tuesday
7,-11.25
8,0.0
9,0.0
10,0.0
11,0.0
12,0.0
13,0.0
14,2.8804841415329416
15,-12.2555622688302
16,1.9131904652854815
17,-11.665643394631502
18,3.4184907891197628
2,1, 1, 1, 0, 3,45.00,60.00,Tuesday
7,-11.1
8,0.0
9,0.0
10,0.0
11,0.0
12,0.0
13,0.0
14,2.8437634897884256
15,-12.134680303072525
16,1.887623004156012
17,-11.532277940383438
18,3.3765000086137517
2,1, 1, 1, 0, 4, 0.00,15.00,Tuesday
7,-11.1
8,0.0
9,0.0
10,0.0
11,0.0
12,0.0
13,0.0
14,2.803800443833044
15,-12.105133081055257
16,1.8490598226857174
17,-11.520541970874888
18,3.334830901711809
2,1, 1, 1, 0, 4,15.00,30.00,Tuesday
7,-11.1
8,0.0
9,0.0
10,0.0
11,0.0
12,0.0
13,0.0
14,2.7642728425590006
15,-12.076717005246453
16,1.8113983061097088
17,-11.514447924447495
18,3.2932642283814417
2,1, 1, 1, 0, 4,30.00,45.00,Tuesday
7,-11.1
8,0.0
9,0.0
10,0.0
11,0.0
12,0.0
13,0.0
14,2.7247703296786178
15,-12.049884025778546
16,1.77395976203087
17,-11.508862239080031
18,3.2517555432310405
2,1, 1, 1, 0, 4,45.00,60.00,Tuesday
7,-11.1
8,0.0
9,0.0
10,0.0
11,0.0
12,0.0
13,0.0
14,2.6853118719116257
15,-12.024506076191049
16,1.7365859588265949
17,-11.503524227536503
18,3.2103266832927299
2,1, 1, 1, 0, 5, 0.00,15.00,Tuesday
7,-10.975
8,0.0
9,0.0
10,0.0
11,0.0
12,0.0
13,0.0
14,2.651181291203072
15,-11.902309089929883
16,1.710886807783254
17,-11.396780942596536
18,3.169697794842986
2,1, 1, 1, 0, 5,15.00,30.00,Tuesday
7,-10.85
8,0.0
9,0.0
10,0.0
11,0.0
12,0.0
13,0.0
14,2.61715869360736
15,-11.780203867553519
16,1.6861512197300499
17,-11.283582824545704
18,3.130238704496929
2,1, 1, 1, 0, 5,30.00,45.00,Tuesday
7,-10.725
8,0.0
9,0.0
10,0.0
11,0.0
12,0.0
13,0.0
14,2.5839196937491897
15,-11.658081834591386
16,1.6618682266354768
17,-11.169947721604956
18,3.091836247854432
2,1, 1, 1, 0, 5,45.00,60.00,Tuesday
7,-10.6
8,0.0
9,0.0
10,0.0
11,0.0
12,0.0
13,0.0
14,2.551356273427701
15,-11.535970861158364
16,1.6382840910900428
17,-11.056240409600776
18,3.0542419290784754
2,1, 1, 1, 0, 6, 0.00,15.00,Tuesday
7,-10.6
8,0.0
9,0.0
10,0.0
11,0.0
12,0.0
13,0.0
14,2.5117824347662736
15,-11.536765857989972
16,1.6000345141291633
17,-11.054541804935468
18,3.016206948139501
2,1, 1, 1, 0, 6,15.00,30.00,Tuesday
7,-10.6
8,0.0
9,0.0
10,0.0
11,0.0
12,0.0
13,0.0
14,2.472864883741576
15,-11.53748995675953
16,1.562921639501269
17,-11.056098253043388
18,2.9770483143509685
2,1, 1, 1, 0, 6,30.00,45.00,Tuesday
7,-10.6
8,0.0
9,0.0
10,0.0
11,0.0
12,0.0
13,0.0
14,2.433467158733274
15,-11.538254531545573
16,1.5258832383933623
17,-11.05855233416571
18,2.936933309659794
2,1, 1, 1, 0, 6,45.00,60.00,Tuesday
7,-10.6
8,0.0
9,0.0
10,0.0
11,0.0
12,0.0
13,0.0
14,2.3938016515185249
15,-11.539018881457649
16,1.4913991910109417
17,-11.059611673197708
18,2.8962533894947586
2,1, 1, 1, 0, 7, 0.00,15.00,Tuesday
7,-10.6
8,0.0
9,0.0
10,0.0
11,0.0
12,0.0
13,0.0
14,2.35620823251337
15,-11.514653796106659
16,1.4548026597210538
17,-11.053881526333044
18,2.8557600953642878
2,1, 1, 1, 0, 7,15.00,30.00,Tuesday
7,-10.6
8,0.0
9,0.0
10,0.0
11,0.0
12,0.0
13,0.0
14,2.318471792209694
15,-11.491548846242168
16,1.4192603259886596
17,-11.047856288182402
18,2.815834757916068
2,1, 1, 1, 0, 7,30.00,45.00,Tuesday
7,-10.6
8,0.0
9,0.0
10,0.0
11,0.0
12,0.0
13,0.0
14,2.2810315486131929
15,-11.469616526197957
16,1.3838264644527954
17,-11.04204085090106
18,2.7764392152568067
2,1, 1, 1, 0, 7,45.00,60.00,Tuesday
7,-10.6
8,0.0
9,0.0
10,0.0
11,0.0
12,0.0
13,0.0
14,2.2438883109944487
15,-11.448787923317378
16,1.3486668872005794
17,-11.036432250839198
18,2.7374251829118076
2,1, 1, 1, 0, 8, 0.00,15.00,Tuesday
7,-10.45
8,0.0
9,0.0
10,0.0
11,0.0
12,0.0
13,0.0
14,2.205752239846892
15,-11.400170323752374
16,1.317478355621688
17,-10.999222046297519
18,2.6981486367695468
2,1, 1, 1, 0, 8,15.00,30.00,Tuesday
7,-10.3
8,92.15750704739708
9,1.0
10,22.819555959623899
11,1.0
12,22.819555959623899
13,92.15750704739708
14,2.274150548735387
15,-9.72715217524794
16,1.6889760041020737
17,-10.663054654782343
18,2.673734000836999
2,1, 1, 1, 0, 8,30.00,45.00,Tuesday
7,-10.15
8,454.0668273181285
9,1.0
10,109.75755355442667
11,1.0
12,109.75755355442667
13,454.0668273181285
14,2.6319874390375719
15,-3.363115141896863
16,3.336921514205983
17,-9.446453185642668
18,2.7046968794996539
2,1, 1, 1, 0, 8,45.00,60.00,Tuesday
7,-10.0
8,829.8784025660395
9,1.0
10,195.8764694434918
11,1.0
12,195.8764694434918
13,829.8784025660395
14,3.065686804192355
15,3.116966220818787
16,4.905226540087597
17,-8.2259572521221
18,2.8008942255334365
2,1, 1, 1, 0, 9, 0.00,15.00,Tuesday
7,-9.725
8,1208.431253707413
9,1.0
10,278.97248314719988
11,1.0
12,278.97248314719988
13,1208.431253707413
14,3.4415806957462444
15,8.305939365494155
16,6.3507830526365869
17,-7.158098449577665
18,2.9515150227112625
2,1, 1, 1, 0, 9,15.00,30.00,Tuesday
7,-9.45
8,1611.27847082868
9,1.0
10,364.91995730569456
11,1.0
12,364.91995730569456
13,1611.27847082868
14,3.8399474271594795
15,13.381373397011434
16,7.8025081541275089
17,-6.103704052129956
18,3.142173391817642
2,1, 1, 1, 0, 9,30.00,45.00,Tuesday
7,-9.175
8,1882.5474509696963
9,1.0
10,420.35879993239237
11,1.0
12,420.35879993239237
13,1882.5474509696963
14,4.102449140330024
15,16.139949090822979
16,8.793274252597314
17,-5.461709587590349
18,3.3537082837116229
2,1, 1, 1, 0, 9,45.00,60.00,Tuesday
7,-8.9
8,2165.2536956705005
9,1.0
10,478.00138373643099
11,1.0
12,478.00138373643099
13,2165.2536956705005
14,4.417425011379354
15,19.13480923919212
16,9.772162185234265
17,-4.792423952564718
18,3.5774011140022816
2,1, 1, 1, 0,10, 0.00,15.00,Tuesday
7,-8.350000000000002
8,2454.840672138349
9,1.0
10,536.9185644770597
11,1.0
12,536.9185644770597
13,2454.840672138349
14,4.673283887271479
15,20.252773983832456
16,10.78700455378032
17,-3.993412790636853
18,3.819153875524897
2,1, 1, 1, 0,10,15.00,30.00,Tuesday
7,-7.800000000000001
8,2754.837686584413
9,1.0
10,598.0969199229219
11,1.0
12,598.0969199229219
13,2754.837686584413
14,4.956003312770785
15,21.50627634301444
16,11.827065531415144
17,-3.2192154831790278
18,4.077410286193629
2,1, 1, 1, 0,10,30.00,45.00,Tuesday
7,-7.25
8,2954.460675234528
9,1.0
10,637.6133352894237
11,1.0
12,637.6133352894237
13,2954.460675234528
14,5.168938506746522
15,21.566315064564426
16,12.57303602528782
17,-2.6809699842683587
18,4.337733797197054
2,1, 1, 1, 0,10,45.00,60.00,Tuesday
7,-6.7
8,3151.0542115929945
9,1.0
10,676.6412284283772
11,1.0
12,676.6412284283772
13,3151.0542115929945
14,5.399401054491134
15,21.726760367493357
16,13.287099439811925
17,-2.1205069814320156
18,4.590923981859277
2,1, 1, 1, 0,11, 0.00,15.00,Tuesday
7,-6.275
8,3343.9250631385687
9,1.0
10,715.0112779846514
11,1.0
12,715.0112779846514
13,3343.9250631385687
14,5.705614485427571
15,23.824330824837874
16,14.002527930041822
17,-1.4055069351333032
18,4.839983030797756
2,1, 1, 1, 0,11,15.00,30.00,Tuesday
7,-5.85
8,3532.070082927922
9,1.0
10,752.5077794605232
11,1.0
12,752.5077794605232
13,3532.070082927922
14,5.9983322559413969
15,25.759126969548178
16,14.707998454924678
17,-0.7017931604275418
18,5.089656160589067
2,1, 1, 1, 0,11,30.00,45.00,Tuesday
7,-5.425
8,3479.1857131981189
9,1.0
10,742.5988714321785
11,1.0
12,742.5988714321785
13,3479.1857131981189
14,6.163625408208235
15,25.610762267434976
16,14.795365776237759
17,-0.3972564963102059
18,5.3244240610312
2,1, 1, 1, 0,11,45.00,60.00,Tuesday
7,-5.0
8,3401.966428615978
9,1.0
10,727.8169025450712
11,1.0
12,727.8169025450712
13,3401.966428615978
14,6.324311262863209
15,25.381388964448797
16,14.788763818306507
17,-0.12215346785382053
18,5.533240577924717
2,1, 1, 1, 0,12, 0.00,15.00,Tuesday
7,-4.575
8,3268.9162799877196
9,1.0
10,700.3759009170325
11,1.0
12,700.3759009170325
13,3268.9162799877196
14,6.432654404157706
15,24.63861376555036
16,14.609075975744077
17,0.09726563923055665
18,5.710547876902272
2,1, 1, 1, 0,12,15.00,30.00,Tuesday
7,-4.15
8,3167.996389959925
9,1.0
10,681.6705029034473
11,1.0
12,681.6705029034473
13,3167.996389959925
14,6.561046668933137
15,24.308048145766599
16,14.523322892661668
17,0.38872931622552189
18,5.863526798778987
2,1, 1, 1, 0,12,30.00,45.00,Tuesday
7,-3.7249999999999998
8,2777.3496836530587
9,1.0
10,602.01865277251
11,1.0
12,602.01865277251
13,2777.3496836530587
14,6.472053939922351
15,21.27950753005711
16,13.63388901686028
17,0.20848551735809907
18,5.973782816570044
2,1, 1, 1, 0,12,45.00,60.00,Tuesday
7,-3.3
8,2266.039030991335
9,1.0
10,493.55004396206007
11,1.0
12,493.55004396206007
13,2266.039030991335
14,6.281458819833572
15,17.10079082563587
16,12.254668362817256
17,-0.23847914279531325
18,6.023150218492796
2,1, 1, 1, 0,13, 0.00,15.00,Tuesday
7,-3.0249999999999996
8,1864.918535661873
9,1.0
10,412.335026418112
11,1.0
12,412.335026418112
13,1864.918535661873
14,6.145355701288641
15,14.256118817068762
16,11.16260328462215
17,-0.5318351547102793
18,6.0234567446915829
2,1, 1, 1, 0,13,15.00,30.00,Tuesday
7,-2.75
8,1360.7676135935772
9,1.0
10,305.94037763660148
11,1.0
12,305.94037763660148
13,1360.7676135935772
14,5.876880746278133
15,10.081231526940444
16,9.67172851988505
17,-1.0518410480834178
18,5.976385479448841
2,1, 1, 1, 0,13,30.00,45.00,Tuesday
7,-2.475
8,1239.845359812998
9,1.0
10,281.0763483922329
11,1.0
12,281.0763483922329
13,1239.845359812998
14,5.855923723531024
15,9.571544881461522
16,9.2824147464122
17,-0.9129803670087995
18,5.915118028217035
2,1, 1, 1, 0,13,45.00,60.00,Tuesday
7,-2.2
8,1121.425395556538
9,1.0
10,256.7721209415886
11,1.0
12,256.7721209415886
13,1121.425395556538
14,5.819391962469977
15,8.963862769066866
16,8.956010674441359
17,-0.7519219707220373
18,5.863923786047728
2,1, 1, 1, 0,14, 0.00,15.00,Tuesday
7,-1.9250000000000003
8,914.5926123773469
9,1.0
10,210.73276284570657
11,1.0
12,210.73276284570657
13,914.5926123773469
14,5.704570494812799
15,7.415252290062882
16,8.284584528656979
17,-0.8264305261017739
18,5.817844808101277
2,1, 1, 1, 0,14,15.00,30.00,Tuesday
7,-1.6500000000000002
8,809.6775858076765
9,1.0
10,189.38488290342594
11,1.0
12,189.38488290342594
13,809.6775858076765
14,5.682209510602097
15,7.011980180586491
16,7.952566156093383
17,-0.7012095527285851
18,5.777200731163581
2,1, 1, 1, 0,14,30.00,45.00,Tuesday
7,-1.375
8,773.1146972475121
9,1.0
10,179.3940297802914
11,1.0
12,179.3940297802914
13,773.1146972475121
14,5.676875080022354
15,7.132234107669361
16,7.820123326597923
17,-0.4704017019974458
18,5.744581736906099
2,1, 1, 1, 0,14,45.00,60.00,Tuesday
7,-1.1
8,735.7893474842847
9,1.0
10,169.43349014176136
11,1.0
12,169.43349014176136
13,735.7893474842847
14,5.6706671642267338
15,7.230605626245515
16,7.68490814767722
17,-0.23977547525544197
18,5.719281768870975
2,1, 1, 1, 0,15, 0.00,15.00,Tuesday
7,-1.1
8,773.8909461974802
9,1.0
10,178.15692317953907
11,1.0
12,178.15692317953907
13,773.8909461974802
14,5.716952023338113
15,8.04663763290036
16,7.816654923483611
17,-0.12443140806806241
18,5.704622670120517
2,1, 1, 1, 0,15,15.00,30.00,Tuesday
7,-1.1
8,726.941996004965
9,1.0
10,166.40516310952945
11,1.0
12,166.40516310952945
13,726.941996004965
14,5.680351619619793
15,7.683110965253728
16,7.6445465818862889
17,-0.20541463807705896
18,5.692972024785363
2,1, 1, 1, 0,15,30.00,45.00,Tuesday
7,-1.1
8,611.5649513491846
9,1.0
10,140.8967369711617
11,1.0
12,140.8967369711617
13,611.5649513491846
14,5.581840278252554
15,6.473790679073123
16,7.223281434340322
17,-0.46426612266270697
18,5.6718879946746
2,1, 1, 1, 0,15,45.00,60.00,Tuesday
7,-1.1
8,502.0061046110028
9,1.0
10,116.57355796743004
11,1.0
12,116.57355796743004
13,502.0061046110028
14,5.490759186231893
15,5.268909305605519
16,6.795512757468032
17,-0.7281188393870934
18,5.634665399699616
2,1, 1, 1, 0,16, 0.00,15.00,Tuesday
7,-1.1
8,397.3564596057699
9,1.0
10,93.14939272689483
11,1.0
12,93.14939272689483
13,397.3564596057699
14,5.400787174967807
15,4.214613625976436
16,6.3717665122939028
17,-0.9249616458491232
18,5.582270653364884
2,1, 1, 1, 0,16,15.00,30.00,Tuesday
7,-1.1
8,246.0241224001257
9,1.0
10,57.94047897402063
11,1.0
12,57.94047897402063
13,246.0241224001257
14,5.233705597684933
15,2.0881534525165947
16,5.705751419339833
17,-1.3102384641229037
18,5.510676244913352
2,1, 1, 1, 0,16,30.00,45.00,Tuesday
7,-1.1
8,190.18037094464638
9,1.0
10,45.38251793443488
11,1.0
12,45.38251793443488
13,190.18037094464638
14,5.166995232999866
15,1.4737863757765344
16,5.393440162634647
17,-1.4276618773466226
18,5.429657677570823
2,1, 1, 1, 0,16,45.00,60.00,Tuesday
7,-1.1
8,132.41076891910806
9,1.0
10,32.02625108222755
11,1.0
12,32.02625108222755
13,132.41076891910806
14,5.068891488906044
15,0.607012815733309
16,5.102203257990595
17,-1.5694349394507299
18,5.346408593549776
2,1, 1, 1, 0,17, 0.00,15.00,Tuesday
7,-1.1
8,72.49471069167912
9,1.0
10,17.762198626050539
11,1.0
12,17.762198626050539
13,72.49471069167912
14,4.943661692188449
15,-0.6493282794445949
16,4.7772524719923699
17,-1.8485612087164328
18,5.2587453954378999
2,1, 1, 1, 0,17,15.00,30.00,Tuesday
7,-1.1
8,0.0
9,0.0
10,0.0
11,0.0
12,0.0
13,0.0
14,4.770813050387368
15,-2.488743323941384
16,4.385027793683776
17,-2.14065695746001
18,5.159560038355167
2,1, 1, 1, 0,17,30.00,45.00,Tuesday
7,-1.1
8,0.0
9,0.0
10,0.0
11,0.0
12,0.0
13,0.0
14,4.719628171605744
15,-2.6271438739381489
16,4.2826369036765759
17,-2.218528300429057
18,5.063233374995467
2,1, 1, 1, 0,17,45.00,60.00,Tuesday
7,-1.1
8,0.0
9,0.0
10,0.0
11,0.0
12,0.0
13,0.0
14,4.655018796620785
15,-2.8220642030270719
16,4.2213969387371439
17,-2.310681423587937
18,4.98241071287099
2,1, 1, 1, 0,18, 0.00,15.00,Tuesday
7,-1.25
8,0.0
9,0.0
10,0.0
11,0.0
12,0.0
13,0.0
14,4.602164514329903
15,-2.969340836742948
16,4.150360033779293
17,-2.4648292679838734
18,4.918632451871682
2,1, 1, 1, 0,18,15.00,30.00,Tuesday
7,-1.4
8,0.0
9,0.0
10,0.0
11,0.0
12,0.0
13,0.0
14,4.55453764670096
15,-3.121647747334845
16,4.093242594181731
17,-2.6092613312672485
18,4.867469042066106
2,1, 1, 1, 0,18,30.00,45.00,Tuesday
7,-1.5499999999999999
8,0.0
9,0.0
10,0.0
11,0.0
12,0.0
13,0.0
14,4.511497438169428
15,-3.2734130721245986
16,4.045430180820176
17,-2.75045021797348
18,4.823827463873813
2,1, 1, 1, 0,18,45.00,60.00,Tuesday
7,-1.7
8,0.0
9,0.0
10,0.0
11,0.0
12,0.0
13,0.0
14,4.470780499362645
15,-3.42533827567562
16,3.996457502900057
17,-2.895251212210212
18,4.7841972952980129
2,1, 1, 1, 0,19, 0.00,15.00,Tuesday
7,-1.825
8,0.0
9,0.0
10,0.0
11,0.0
12,0.0
13,0.0
14,4.4562883758785809
15,-3.2717369145877308
16,3.9618650507443364
17,-2.884608118213123
18,4.750393766207436
2,1, 1, 1, 0,19,15.00,30.00,Tuesday
7,-1.9500000000000002
8,0.0
9,0.0
10,0.0
11,0.0
12,0.0
13,0.0
14,4.442245577924907
15,-3.200183738930672
16,3.940259986718047
17,-2.903777755528779
18,4.724170999058261
2,1, 1, 1, 0,19,30.00,45.00,Tuesday
7,-2.075
8,0.0
9,0.0
10,0.0
11,0.0
12,0.0
13,0.0
14,4.4216288597485609
15,-3.2726566410310236
16,3.9158195419836376
17,-2.9948471870757205
18,4.703688965547016
2,1, 1, 1, 0,19,45.00,60.00,Tuesday
7,-2.2
8,0.0
9,0.0
10,0.0
11,0.0
12,0.0
13,0.0
14,4.405315729037904
15,-3.2462281539110138
16,3.8966827696152679
17,-3.0325107508841144
18,4.685854986644454
2,1, 1, 1, 0,20, 0.00,15.00,Tuesday
7,-1.9250000000000003
8,0.0
9,0.0
10,0.0
11,0.0
12,0.0
13,0.0
14,4.404570517317394
15,-2.9439839110651215
16,3.9093480876514947
17,-2.759400639254693
18,4.670237770847652
2,1, 1, 1, 0,20,15.00,30.00,Tuesday
7,-1.6500000000000002
8,0.0
9,0.0
10,0.0
11,0.0
12,0.0
13,0.0
14,4.4035773236015089
15,-2.6448728321628716
16,3.926082193407183
17,-2.4865915767885555
18,4.657010047754231
2,1, 1, 1, 0,20,30.00,45.00,Tuesday
7,-1.375
8,0.0
9,0.0
10,0.0
11,0.0
12,0.0
13,0.0
14,4.4039345636936189
15,-2.3470761231301755
16,3.943702007594709
17,-2.213784170180247
18,4.645922870793487
2,1, 1, 1, 0,20,45.00,60.00,Tuesday
7,-1.1
8,0.0
9,0.0
10,0.0
11,0.0
12,0.0
13,0.0
14,4.405513094703975
15,-2.050593326030278
16,3.9626267151577396
17,-1.9409451973368164
18,4.636535595438201
2,1, 1, 1, 0,21, 0.00,15.00,Tuesday
7,-1.25
8,0.0
9,0.0
10,0.0
11,0.0
12,0.0
13,0.0
14,4.364777580626061
15,-2.3357786253319809
16,3.9312473231963169
17,-2.1573068522326368
18,4.6229455858662169
2,1, 1, 1, 0,21,15.00,30.00,Tuesday
7,-1.4
8,0.0
9,0.0
10,0.0
11,0.0
12,0.0
13,0.0
14,4.3250617367183159
15,-2.554469594424475
16,3.888285259239069
17,-2.3221221252884449
18,4.6006478773137708
2,1, 1, 1, 0,21,30.00,45.00,Tuesday
7,-1.5499999999999999
8,0.0
9,0.0
10,0.0
11,0.0
12,0.0
13,0.0
14,4.27164533663169
15,-2.9041384330463004
16,3.8323993221394518
17,-2.563459716342777
18,4.56832719389588
2,1, 1, 1, 0,21,45.00,60.00,Tuesday
7,-1.7
8,0.0
9,0.0
10,0.0
11,0.0
12,0.0
13,0.0
14,4.212886437006223
15,-3.3621481182414074
16,3.7644771890361996
17,-2.8365489573614015
18,4.527651724617006
2,1, 1, 1, 0,22, 0.00,15.00,Tuesday
7,-1.5499999999999999
8,0.0
9,0.0
10,0.0
11,0.0
12,0.0
13,0.0
14,4.224512742750998
15,-2.8673155048000047
16,3.7544905648639999
17,-2.5397361734574135
18,4.492131752571931
2,1, 1, 1, 0,22,15.00,30.00,Tuesday
7,-1.4
8,0.0
9,0.0
10,0.0
11,0.0
12,0.0
13,0.0
14,4.226833887766508
15,-2.5321607257760059
16,3.7698794928919598
17,-2.3095851526852586
18,4.469430263998489
2,1, 1, 1, 0,22,30.00,45.00,Tuesday
7,-1.25
8,0.0
9,0.0
10,0.0
11,0.0
12,0.0
13,0.0
14,4.22722596226274
15,-2.309816466357201
16,3.780984792639856
17,-2.1421845293825756
18,4.4575589459933548
2,1, 1, 1, 0,22,45.00,60.00,Tuesday
7,-1.1
8,0.0
9,0.0
10,0.0
11,0.0
12,0.0
13,0.0
14,4.231498296827628
15,-2.0232902717369387
16,3.7981538253766304
17,-1.9180886368543498
18,4.451397733530983
2,1, 1, 1, 0,23, 0.00,15.00,Tuesday
7,-1.25
8,0.0
9,0.0
10,0.0
11,0.0
12,0.0
13,0.0
14,4.190606474812707
15,-2.326702802355266
16,3.759353866565334
17,-2.23483735275272
18,4.441252576543414
2,1, 1, 1, 0,23,15.00,30.00,Tuesday
7,-1.4
8,0.0
9,0.0
10,0.0
11,0.0
12,0.0
13,0.0
14,4.1538193972619299
15,-2.6311835083368715
16,3.7013432198997409
17,-2.5530744489082055
18,4.422068044175691
2,1, 1, 1, 0,23,30.00,45.00,Tuesday
7,-1.5499999999999999
8,0.0
9,0.0
10,0.0
11,0.0
12,0.0
13,0.0
14,4.110989899090585
15,-2.9363549303223968
16,3.642820469446633
17,-2.8709847208322119
18,4.394354485124562
2,1, 1, 1, 0,23,45.00,60.00,Tuesday
7,-1.7
8,0.0
9,0.0
10,0.0
11,0.0
12,0.0
13,0.0
14,4.065715150202166
15,-3.241783880637171
16,3.579902430310085
17,-3.18895506041639
18,4.360630292160764
2,1, 1, 1, 0,24, 0.00,15.00,Tuesday
7,-1.7
8,0.0
9,0.0
10,0.0
11,0.0
12,0.0
13,0.0
14,4.037222867325287
15,-3.2956294738697444
16,3.541625773840451
17,-3.24705972533269
18,4.325899134521296
2,1, 1, 1, 0,24,15.00,30.00,Tuesday
7,-1.7
8,0.0
9,0.0
10,0.0
11,0.0
12,0.0
13,0.0
14,4.005708451663416
15,-3.3501845762977999
16,3.5086956105672018
17,-3.308621270364199
18,4.293015591049933
2,1, 1, 1, 0,24,30.00,45.00,Tuesday
7,-1.7
8,0.0
9,0.0
10,0.0
11,0.0
12,0.0
13,0.0
14,3.974961163879035
15,-3.4046054418606785
16,3.4750545142569537
17,-3.3703886015363766
18,4.262154882854495
2,1, 1, 1, 0,24,45.00,60.00,Tuesday
7,-1.7
8,0.0
9,0.0
10,0.0
11,0.0
12,0.0
13,0.0
14,3.944825308750553
15,-3.459028834222517
16,3.442090643099391
17,-3.4320461388610399
18,4.232539452972597
End of Data
 Number of Records Written=        1152
