Program Version,EnergyPlus, Version 9.5.0-de239b2e5f, YMD=2023.02.16 18:16
1,5,Environment Title[],Latitude[deg],Longitude[deg],Time Zone[],Elevation[m]
2,8,Day of Simulation[],Month[],Day of Month[],DST Indicator[1=yes 0=no],Hour[],StartMinute[],EndMinute[],DayType
3,5,Cumulative Day of Simulation[],Month[],Day of Month[],DST Indicator[1=yes 0=no],DayType  ! When Daily Report Variables Requested
4,2,Cumulative Days of Simulation[],Month[]  ! When Monthly Report Variables Requested
5,1,Cumulative Days of Simulation[] ! When Run Period Report Variables Requested
6,1,Calendar Year of Simulation[] ! When Annual Report Variables Requested
7,1,Environment,Site Outdoor Air Drybulb Temperature [C] !TimeStep
8,1,ZONE ONE,Zone Windows Total Transmitted Solar Radiation Rate [W] !TimeStep
9,1,ZN001:WALL001,Surface Outside Face Sunlit Fraction [] !TimeStep
10,1,ZN001:WALL001,Surface Outside Face Incident Solar Radiation Rate per Area [W/m2] !TimeStep
11,1,ZN001:WALL001:WIN001,Surface Outside Face Sunlit Fraction [] !TimeStep
12,1,ZN001:WALL001:WIN001,Surface Outside Face Incident Solar Radiation Rate per Area [W/m2] !TimeStep
13,1,ZN001:WALL001:WIN001,Surface Window Transmitted Solar Radiation Rate [W] !TimeStep
14,1,ZN001:WALL001,Surface Inside Face Temperature [C] !TimeStep
15,1,ZN001:WALL001,Surface Outside Face Temperature [C] !TimeStep
16,1,ZN001:WALL001:WIN001,Surface Inside Face Temperature [C] !TimeStep
17,1,ZN001:WALL001:WIN001,Surface Outside Face Temperature [C] !TimeStep
18,1,ZONE ONE,Zone Mean Air Temperature [C] !TimeStep
End of Data Dictionary
1,RUN PERIOD 1,  41.98, -87.92,  -6.00, 201.00
2,1, 1, 1, 0, 1, 0.00,15.00,Tuesday
7,-4.324999999999999
8,0.0
9,0.0
10,0.0
11,0.0
12,0.0
13,0.0
14,3.8522970888683556
15,-5.933720984989943
16,3.351474834119699
17,-5.817262240878108
18,4.278530968836658
2,1, 1, 1, 0, 1,15.00,30.00,Tuesday
7,-6.949999999999999
8,0.0
9,0.0
10,0.0
11,0.0
12,0.0
13,0.0
14,3.6832061743231034
15,-8.401312834912386
16,3.0554543398748139
17,-8.148379936294703
18,4.2002604549316129
2,1, 1, 1, 0, 1,30.00,45.00,Tuesday
7,-9.575
8,0.0
9,0.0
10,0.0
11,0.0
12,0.0
13,0.0
14,3.497306103826102
15,-10.876843409024865
16,2.7559879908777704
17,-10.487097420826388
18,4.094130069188207
2,1, 1, 1, 0, 1,45.00,60.00,Tuesday
7,-12.2
8,0.0
9,0.0
10,0.0
11,0.0
12,0.0
13,0.0
14,3.2978850972952578
15,-13.358941342730186
16,2.4422575011192295
17,-12.834430106938783
18,3.9679820679733228
2,1, 1, 1, 0, 2, 0.00,15.00,Tuesday
7,-12.075
8,0.0
9,0.0
10,0.0
11,0.0
12,0.0
13,0.0
14,3.246477819878695
15,-13.159991506666412
16,2.340963545437944
17,-12.695705826513973
18,3.8525522340317108
2,1, 1, 1, 0, 2,15.00,30.00,Tuesday
7,-11.95
8,0.0
9,0.0
10,0.0
11,0.0
12,0.0
13,0.0
14,3.1804321656877905
15,-12.982636210197958
16,2.29083305606963
17,-12.509531884650926
18,3.7635384512646827
2,1, 1, 1, 0, 2,30.00,45.00,Tuesday
7,-11.825
8,0.0
9,0.0
10,0.0
11,0.0
12,0.0
13,0.0
14,3.128917573996925
15,-12.80420016289995
16,2.2463342597856128
17,-12.341623142616982
18,3.697532338618233
2,1, 1, 1, 0, 2,45.00,60.00,Tuesday
7,-11.7
8,0.0
9,0.0
10,0.0
11,0.0
12,0.0
13,0.0
14,3.087127037073502
15,-12.625831808090508
16,2.2106315504711917
17,-12.153272522645466
18,3.6456067062964427
2,1, 1, 1, 0, 3, 0.00,15.00,Tuesday
7,-11.549999999999999
8,0.0
9,0.0
10,0.0
11,0.0
12,0.0
13,0.0
14,3.0462920632675227
15,-12.500341101046944
16,2.180851804047336
17,-12.025660632082122
18,3.5999321574407987
2,1, 1, 1, 0, 3,15.00,30.00,Tuesday
7,-11.399999999999999
8,0.0
9,0.0
10,0.0
11,0.0
12,0.0
13,0.0
14,3.0084526578700387
15,-12.376238209871199
16,2.1515453750423605
17,-11.89209108601733
18,3.5564212915867574
2,1, 1, 1, 0, 3,30.00,45.00,Tuesday
7,-11.25
8,0.0
9,0.0
10,0.0
11,0.0
12,0.0
13,0.0
14,2.9713910196083219
15,-12.253687363409045
16,2.123954982586895
17,-11.758696311579115
18,3.513791413722569
2,1, 1, 1, 0, 3,45.00,60.00,Tuesday
7,-11.1
8,0.0
9,0.0
10,0.0
11,0.0
12,0.0
13,0.0
14,2.9347172817509579
15,-12.132750549494697
16,2.096931803605173
17,-11.625983797462425
18,3.471836676538533
2,1, 1, 1, 0, 4, 0.00,15.00,Tuesday
7,-11.1
8,0.0
9,0.0
10,0.0
11,0.0
12,0.0
13,0.0
14,2.894816480770538
15,-12.103257019065334
16,2.0584467508512036
17,-11.612425960529265
18,3.430215310557179
2,1, 1, 1, 0, 4,15.00,30.00,Tuesday
7,-11.1
8,0.0
9,0.0
10,0.0
11,0.0
12,0.0
13,0.0
14,2.8553520673304089
15,-12.074892036060508
16,2.0206787356953557
17,-11.604191958721288
18,3.3887120604199025
2,1, 1, 1, 0, 4,30.00,45.00,Tuesday
7,-11.1
8,0.0
9,0.0
10,0.0
11,0.0
12,0.0
13,0.0
14,2.8159191635706608
15,-12.048107541669296
16,1.9831206256195629
17,-11.596516865288777
18,3.347277217186109
2,1, 1, 1, 0, 4,45.00,60.00,Tuesday
7,-11.1
8,0.0
9,0.0
10,0.0
11,0.0
12,0.0
13,0.0
14,2.776534014520212
15,-12.022775733968805
16,1.9456268706253468
17,-11.589167986498183
18,3.305926880245552
2,1, 1, 1, 0, 5, 0.00,15.00,Tuesday
7,-10.975
8,0.0
9,0.0
10,0.0
11,0.0
12,0.0
13,0.0
14,2.7424568092247298
15,-11.900579019907184
16,1.9186420032563092
17,-11.481103728200424
18,3.265363484961705
2,1, 1, 1, 0, 5,15.00,30.00,Tuesday
7,-10.85
8,0.0
9,0.0
10,0.0
11,0.0
12,0.0
13,0.0
14,2.7084833600817177
15,-11.778473903126585
16,1.8927689593936635
17,-11.366829441267385
18,3.225952674165801
2,1, 1, 1, 0, 5,30.00,45.00,Tuesday
7,-10.725
8,0.0
9,0.0
10,0.0
11,0.0
12,0.0
13,0.0
14,2.6752844006616667
15,-11.656352168388615
16,1.8673547459875409
17,-11.252153966036702
18,3.18758529577049
2,1, 1, 1, 0, 5,45.00,60.00,Tuesday
7,-10.6
8,0.0
9,0.0
10,0.0
11,0.0
12,0.0
13,0.0
14,2.6427539160119259
15,-11.534241560299075
16,1.8426337961279842
17,-11.137417047093834
18,3.150017598667667
2,1, 1, 1, 0, 6, 0.00,15.00,Tuesday
7,-10.6
8,0.0
9,0.0
10,0.0
11,0.0
12,0.0
13,0.0
14,2.6032755505164375
15,-11.535034831476346
16,1.8071145882278188
17,-11.132770104304086
18,3.1119868649968298
2,1, 1, 1, 0, 6,15.00,30.00,Tuesday
7,-10.6
8,0.0
9,0.0
10,0.0
11,0.0
12,0.0
13,0.0
14,2.5643954298012758
15,-11.535757769461667
16,1.769876526727785
17,-11.13487986567867
18,3.072841887104553
2,1, 1, 1, 0, 6,30.00,45.00,Tuesday
7,-10.6
8,0.0
9,0.0
10,0.0
11,0.0
12,0.0
13,0.0
14,2.525042525691577
15,-11.536521232060223
16,1.7326436400308012
17,-11.13737771365362
18,3.0327598392718464
2,1, 1, 1, 0, 6,45.00,60.00,Tuesday
7,-10.6
8,0.0
9,0.0
10,0.0
11,0.0
12,0.0
13,0.0
14,2.4853847631368199
15,-11.537284346117986
16,1.6950385897174556
17,-11.139926514757577
18,2.992154416011175
2,1, 1, 1, 0, 7, 0.00,15.00,Tuesday
7,-10.6
8,0.0
9,0.0
10,0.0
11,0.0
12,0.0
13,0.0
14,2.4478572803667419
15,-11.512963846274517
16,1.6582418192174374
17,-11.132529438545817
18,2.9517470429927838
2,1, 1, 1, 0, 7,15.00,30.00,Tuesday
7,-10.6
8,0.0
9,0.0
10,0.0
11,0.0
12,0.0
13,0.0
14,2.410186664865095
15,-11.489900866842185
16,1.6225605008334015
17,-11.124767417796534
18,2.9119016468950815
2,1, 1, 1, 0, 7,30.00,45.00,Tuesday
7,-10.6
8,0.0
9,0.0
10,0.0
11,0.0
12,0.0
13,0.0
14,2.3728094998056807
15,-11.468008668163766
16,1.5869822171708848
17,-11.117272589989398
18,2.8725768817546415
2,1, 1, 1, 0, 7,45.00,60.00,Tuesday
7,-10.6
8,0.0
9,0.0
10,0.0
11,0.0
12,0.0
13,0.0
14,2.335725007348797
15,-11.447218388366469
16,1.551671314197506
17,-11.110048244177847
18,2.8336272116663165
2,1, 1, 1, 0, 8, 0.00,15.00,Tuesday
7,-10.45
8,0.0
9,0.0
10,0.0
11,0.0
12,0.0
13,0.0
14,2.2976428064386744
15,-11.398560430089506
16,1.5197679368761783
17,-11.073252646698223
18,2.794404624977338
2,1, 1, 1, 0, 8,15.00,30.00,Tuesday
7,-10.3
8,92.15750704739708
9,1.0
10,22.819555959623899
11,1.0
12,22.819555959623899
13,92.15750704739708
14,2.3659865756631754
15,-9.725536476251106
16,1.8921506279356209
17,-10.739649296967741
18,2.7699975946663288
2,1, 1, 1, 0, 8,30.00,45.00,Tuesday
7,-10.15
8,454.0668273181285
9,1.0
10,109.75755355442667
11,1.0
12,109.75755355442667
13,454.0668273181285
14,2.7232943701616998
15,-3.3613092311479426
16,3.53791141418219
17,-9.532916447926823
18,2.800944026212206
2,1, 1, 1, 0, 8,45.00,60.00,Tuesday
7,-10.0
8,829.8784025660395
9,1.0
10,195.8764694434918
11,1.0
12,195.8764694434918
13,829.8784025660395
14,3.1551382224160076
15,3.1179159103370588
16,5.094912567155234
17,-8.316347689534382
18,2.8972957077691778
2,1, 1, 1, 0, 9, 0.00,15.00,Tuesday
7,-9.725
8,1208.431253707413
9,1.0
10,278.97248314719988
11,1.0
12,278.97248314719988
13,1208.431253707413
14,3.5320707764350485
15,8.307718708881291
16,6.534238495006775
17,-7.251660982088083
18,3.04838212772655
2,1, 1, 1, 0, 9,15.00,30.00,Tuesday
7,-9.45
8,1611.27847082868
9,1.0
10,364.91995730569456
11,1.0
12,364.91995730569456
13,1611.27847082868
14,3.9305967679460007
15,13.382762332370508
16,7.980556529724822
17,-6.2006406751095259
18,3.2395430206384088
2,1, 1, 1, 0, 9,30.00,45.00,Tuesday
7,-9.175
8,1882.5474509696963
9,1.0
10,420.35879993239237
11,1.0
12,420.35879993239237
13,1882.5474509696963
14,4.19408856584871
15,16.141295790035995
16,8.969486489342046
17,-5.5607886302040019
18,3.451341169725155
2,1, 1, 1, 0, 9,45.00,60.00,Tuesday
7,-8.9
8,2165.2536956705005
9,1.0
10,478.00138373643099
11,1.0
12,478.00138373643099
13,2165.2536956705005
14,4.508938421951524
15,19.136120214720195
16,9.946803494115557
17,-4.893574625821998
18,3.6752421963623549
2,1, 1, 1, 0,10, 0.00,15.00,Tuesday
7,-8.350000000000002
8,2454.840672138349
9,1.0
10,536.9185644770597
11,1.0
12,536.9185644770597
13,2454.840672138349
14,4.764858727787603
15,20.253966462974579
16,10.959204778366257
17,-4.090188134422476
18,3.917140541865512
2,1, 1, 1, 0,10,15.00,30.00,Tuesday
7,-7.800000000000001
8,2754.837686584413
9,1.0
10,598.0969199229219
11,1.0
12,598.0969199229219
13,2754.837686584413
14,5.047611545466853
15,21.507384981574459
16,11.997056741674215
17,-3.3126767487249255
18,4.175481463217504
2,1, 1, 1, 0,10,30.00,45.00,Tuesday
7,-7.25
8,2954.460675234528
9,1.0
10,637.6133352894237
11,1.0
12,637.6133352894237
13,2954.460675234528
14,5.260529769858792
15,21.567343277792984
16,12.74189174872049
17,-2.770822606043737
18,4.435833828676308
2,1, 1, 1, 0,10,45.00,60.00,Tuesday
7,-6.7
8,3151.0542115929945
9,1.0
10,676.6412284283772
11,1.0
12,676.6412284283772
13,3151.0542115929945
14,5.490961385818632
15,21.727724702551499
16,13.454749747047686
17,-2.2067176258585734
18,4.689015645695443
2,1, 1, 1, 0,11, 0.00,15.00,Tuesday
7,-6.275
8,3343.9250631385687
9,1.0
10,715.0112779846514
11,1.0
12,715.0112779846514
13,3343.9250631385687
14,5.797120706083962
15,23.825301397347553
16,14.167307211229002
17,-1.4926337367103316
18,4.938003608413316
2,1, 1, 1, 0,11,15.00,30.00,Tuesday
7,-5.85
8,3532.070082927922
9,1.0
10,752.5077794605232
11,1.0
12,752.5077794605232
13,3532.070082927922
14,6.0897691955371899
15,25.76008652106534
16,14.870059002056223
17,-0.7898147298543563
18,5.1875383942835
2,1, 1, 1, 0,11,30.00,45.00,Tuesday
7,-5.425
8,3479.1857131981189
9,1.0
10,742.5988714321785
11,1.0
12,742.5988714321785
13,3479.1857131981189
14,6.254942975763262
15,25.61170843221306
16,14.956367442239753
17,-0.48382347789606686
18,5.4221467364339779
2,1, 1, 1, 0,11,45.00,60.00,Tuesday
7,-5.0
8,3401.966428615978
9,1.0
10,727.8169025450712
11,1.0
12,727.8169025450712
13,3401.966428615978
14,6.415495237062679
15,25.382335479118493
16,14.948602940437013
17,-0.20693517356130543
18,5.63081498969765
2,1, 1, 1, 0,12, 0.00,15.00,Tuesday
7,-4.575
8,3268.9162799877196
9,1.0
10,700.3759009170325
11,1.0
12,700.3759009170325
13,3268.9162799877196
14,6.523698125456547
15,24.639558562409055
16,14.767714611027941
17,0.015138805375613629
18,5.807997912221778
2,1, 1, 1, 0,12,15.00,30.00,Tuesday
7,-4.15
8,3167.996389959925
9,1.0
10,681.6705029034473
11,1.0
12,681.6705029034473
13,3167.996389959925
14,6.651993598155255
15,24.308995843456939
16,14.680295703698903
17,0.30893498884933026
18,5.960857556437694
2,1, 1, 1, 0,12,30.00,45.00,Tuesday
7,-3.7249999999999998
8,2777.3496836530587
9,1.0
10,602.01865277251
11,1.0
12,602.01865277251
13,2777.3496836530587
14,6.5628333650103649
15,21.28044511991342
16,13.791708348992529
17,0.1249544878406823
18,6.07109226982107
2,1, 1, 1, 0,12,45.00,60.00,Tuesday
7,-3.3
8,2266.039030991335
9,1.0
10,493.55004396206007
11,1.0
12,493.55004396206007
13,2266.039030991335
14,6.371711128983268
15,17.101722093472639
16,12.41271270195756
17,-0.30592108885866767
18,6.120683674135103
2,1, 1, 1, 0,13, 0.00,15.00,Tuesday
7,-3.0249999999999996
8,1864.918535661873
9,1.0
10,412.335026418112
11,1.0
12,412.335026418112
13,1864.918535661873
14,6.235386644237973
15,14.257042996152736
16,11.320233631473116
17,-0.5937675447531774
18,6.121184769404606
2,1, 1, 1, 0,13,15.00,30.00,Tuesday
7,-2.75
8,1360.7676135935772
9,1.0
10,305.94037763660148
11,1.0
12,305.94037763660148
13,1360.7676135935772
14,5.96716600691317
15,10.081994117412349
16,9.830263260741618
17,-1.1069153350534862
18,6.073764395516089
2,1, 1, 1, 0,13,30.00,45.00,Tuesday
7,-2.475
8,1239.845359812998
9,1.0
10,281.0763483922329
11,1.0
12,281.0763483922329
13,1239.845359812998
14,5.946636445755324
15,9.572687900964658
16,9.438854082070975
17,-0.9654778086871261
18,6.012022833691367
2,1, 1, 1, 0,13,45.00,60.00,Tuesday
7,-2.2
8,1121.425395556538
9,1.0
10,256.7721209415886
11,1.0
12,256.7721209415886
13,1121.425395556538
14,5.909789265049993
15,8.964980907196427
16,9.109961569855102
17,-0.8019760263435956
18,5.960462282969184
2,1, 1, 1, 0,14, 0.00,15.00,Tuesday
7,-1.9250000000000003
8,914.5926123773469
9,1.0
10,210.73276284570657
11,1.0
12,210.73276284570657
13,914.5926123773469
14,5.795122116408276
15,7.416564754658735
16,8.434993864145725
17,-0.8742659143390483
18,5.914111388662576
2,1, 1, 1, 0,14,15.00,30.00,Tuesday
7,-1.6500000000000002
8,809.6775858076765
9,1.0
10,189.38488290342594
11,1.0
12,189.38488290342594
13,809.6775858076765
14,5.772505054800028
15,7.013125709158171
16,8.102981937943298
17,-0.7467580464466437
18,5.873209863673452
2,1, 1, 1, 0,14,30.00,45.00,Tuesday
7,-1.375
8,773.1146972475121
9,1.0
10,179.3940297802914
11,1.0
12,179.3940297802914
13,773.1146972475121
14,5.76693611158922
15,7.1334072583926189
16,7.967870033393297
17,-0.5151545626999905
18,5.840354794490445
2,1, 1, 1, 0,14,45.00,60.00,Tuesday
7,-1.1
8,735.7893474842847
9,1.0
10,169.43349014176136
11,1.0
12,169.43349014176136
13,735.7893474842847
14,5.76048893605217
15,7.231820404006114
16,7.829983971294951
17,-0.2836700458287851
18,5.814833008737577
2,1, 1, 1, 0,15, 0.00,15.00,Tuesday
7,-1.1
8,773.8909461974802
9,1.0
10,178.15692317953907
11,1.0
12,178.15692317953907
13,773.8909461974802
14,5.806265393362267
15,8.0477924662857
16,7.96053225770936
17,-0.1700083967232331
18,5.800027248576586
2,1, 1, 1, 0,15,15.00,30.00,Tuesday
7,-1.1
8,726.941996004965
9,1.0
10,166.40516310952945
11,1.0
12,166.40516310952945
13,726.941996004965
14,5.769001314301048
15,7.683991602891778
16,7.789088043581273
17,-0.2514724325964153
18,5.788243882649709
2,1, 1, 1, 0,15,30.00,45.00,Tuesday
7,-1.1
8,611.5649513491846
9,1.0
10,140.8967369711617
11,1.0
12,140.8967369711617
13,611.5649513491846
14,5.6720833084134629
15,6.476017221746893
16,7.368561173674038
17,-0.5101706347019217
18,5.766973057706073
2,1, 1, 1, 0,15,45.00,60.00,Tuesday
7,-1.1
8,502.0061046110028
9,1.0
10,116.57355796743004
11,1.0
12,116.57355796743004
13,502.0061046110028
14,5.580750620876089
15,5.270321104990337
16,6.94193202824772
17,-0.7738507521801807
18,5.729467657062879
2,1, 1, 1, 0,16, 0.00,15.00,Tuesday
7,-1.1
8,397.3564596057699
9,1.0
10,93.14939272689483
11,1.0
12,93.14939272689483
13,397.3564596057699
14,5.490821859165572
15,4.216184299182948
16,6.518916588937088
17,-0.9711486422877442
18,5.676752128788655
2,1, 1, 1, 0,16,15.00,30.00,Tuesday
7,-1.1
8,246.0241224001257
9,1.0
10,57.94047897402063
11,1.0
12,57.94047897402063
13,246.0241224001257
14,5.323945831821923
15,2.089876411083489
16,5.857375295053089
17,-1.3563796354831084
18,5.604775715548605
2,1, 1, 1, 0,16,30.00,45.00,Tuesday
7,-1.1
8,190.18037094464638
9,1.0
10,45.38251793443488
11,1.0
12,45.38251793443488
13,190.18037094464638
14,5.257031967719543
15,1.4756238909159603
16,5.544352914872775
17,-1.4738611890081757
18,5.523294218482777
2,1, 1, 1, 0,16,45.00,60.00,Tuesday
7,-1.1
8,132.41076891910806
9,1.0
10,32.02625108222755
11,1.0
12,32.02625108222755
13,132.41076891910806
14,5.158719738736845
15,0.6090442408297342
16,5.249097064614375
17,-1.6170612882526144
18,5.43968770994082
2,1, 1, 1, 0,17, 0.00,15.00,Tuesday
7,-1.1
8,72.49471069167912
9,1.0
10,17.762198626050539
11,1.0
12,17.762198626050539
13,72.49471069167912
14,5.033419864735873
15,-0.6470416689378399
16,4.923287044702647
17,-1.8975928297622318
18,5.351875552083295
2,1, 1, 1, 0,17,15.00,30.00,Tuesday
7,-1.1
8,0.0
9,0.0
10,0.0
11,0.0
12,0.0
13,0.0
14,4.860622568751281
15,-2.4863321286945379
16,4.53044715883226
17,-2.1869009935481928
18,5.252674392086321
2,1, 1, 1, 0,17,30.00,45.00,Tuesday
7,-1.1
8,0.0
9,0.0
10,0.0
11,0.0
12,0.0
13,0.0
14,4.809369328792936
15,-2.6246367919402169
16,4.428223877904884
17,-2.267261348640261
18,5.1563764483186349
2,1, 1, 1, 0,17,45.00,60.00,Tuesday
7,-1.1
8,0.0
9,0.0
10,0.0
11,0.0
12,0.0
13,0.0
14,4.744727311600959
15,-2.8193468674555666
16,4.36705866609293
17,-2.3622877673265068
18,5.075580910279764
2,1, 1, 1, 0,18, 0.00,15.00,Tuesday
7,-1.25
8,0.0
9,0.0
10,0.0
11,0.0
12,0.0
13,0.0
14,4.691833093235626
15,-2.966646401247397
16,4.29660986693591
17,-2.5170275023803585
18,5.011817674070382
2,1, 1, 1, 0,18,15.00,30.00,Tuesday
7,-1.4
8,0.0
9,0.0
10,0.0
11,0.0
12,0.0
13,0.0
14,4.644256900418912
15,-3.1189493546708579
16,4.245392405060443
17,-2.6587525632390909
18,4.9606712753529209
2,1, 1, 1, 0,18,30.00,45.00,Tuesday
7,-1.5499999999999999
8,0.0
9,0.0
10,0.0
11,0.0
12,0.0
13,0.0
14,4.601033643560911
15,-3.270710879600474
16,4.1886838053179649
17,-2.808501609162363
18,4.91703039401971
2,1, 1, 1, 0,18,45.00,60.00,Tuesday
7,-1.7
8,0.0
9,0.0
10,0.0
11,0.0
12,0.0
13,0.0
14,4.561365199523011
15,-3.422639071260187
16,4.145190065294855
17,-2.9502355531014929
18,4.877503518544394
2,1, 1, 1, 0,19, 0.00,15.00,Tuesday
7,-1.825
8,0.0
9,0.0
10,0.0
11,0.0
12,0.0
13,0.0
14,4.5458004423289399
15,-3.2693975101855217
16,4.1111094191630859
17,-2.934962881971728
18,4.843753770324117
2,1, 1, 1, 0,19,15.00,30.00,Tuesday
7,-1.9500000000000002
8,0.0
9,0.0
10,0.0
11,0.0
12,0.0
13,0.0
14,4.531762334121745
15,-3.1980496009218659
16,4.089560642781521
17,-2.950524328112465
18,4.817495957167687
2,1, 1, 1, 0,19,30.00,45.00,Tuesday
7,-2.075
8,0.0
9,0.0
10,0.0
11,0.0
12,0.0
13,0.0
14,4.511075467264658
15,-3.2705985957987586
16,4.065937279738648
17,-3.041331260156312
18,4.796946698304069
2,1, 1, 1, 0,19,45.00,60.00,Tuesday
7,-2.2
8,0.0
9,0.0
10,0.0
11,0.0
12,0.0
13,0.0
14,4.494680540562345
15,-3.2444103114819335
16,4.047186903944748
17,-3.0755443672904336
18,4.779046358609889
2,1, 1, 1, 0,20, 0.00,15.00,Tuesday
7,-1.9250000000000003
8,0.0
9,0.0
10,0.0
11,0.0
12,0.0
13,0.0
14,4.493809486663776
15,-2.9422239409305876
16,4.057284497408716
17,-2.799286175129737
18,4.763342375012397
2,1, 1, 1, 0,20,15.00,30.00,Tuesday
7,-1.6500000000000002
8,0.0
9,0.0
10,0.0
11,0.0
12,0.0
13,0.0
14,4.492670513624868
15,-2.64316574338671
16,4.071658787035062
17,-2.523958090660699
18,4.74999500285781
2,1, 1, 1, 0,20,30.00,45.00,Tuesday
7,-1.375
8,0.0
9,0.0
10,0.0
11,0.0
12,0.0
13,0.0
14,4.492868814816611
15,-2.345419187923915
16,4.086889634579279
17,-2.2487337771385684
18,4.73875752483106
2,1, 1, 1, 0,20,45.00,60.00,Tuesday
7,-1.1
8,0.0
9,0.0
10,0.0
11,0.0
12,0.0
13,0.0
14,4.494274426113109
15,-2.048984370598201
16,4.103404631401133
17,-1.973579728813661
18,4.729197266623243
2,1, 1, 1, 0,21, 0.00,15.00,Tuesday
7,-1.25
8,0.0
9,0.0
10,0.0
11,0.0
12,0.0
13,0.0
14,4.453498886303851
15,-2.333911609558192
16,4.073358626116374
17,-2.195193024273294
18,4.71545058373085
2,1, 1, 1, 0,21,15.00,30.00,Tuesday
7,-1.4
8,0.0
9,0.0
10,0.0
11,0.0
12,0.0
13,0.0
14,4.413760128658629
15,-2.5524643835288538
16,4.031609357522484
17,-2.3627062931753359
18,4.693034448695641
2,1, 1, 1, 0,21,30.00,45.00,Tuesday
7,-1.5499999999999999
8,0.0
9,0.0
10,0.0
11,0.0
12,0.0
13,0.0
14,4.360341211393924
15,-2.9017924130510917
16,3.976464197790733
17,-2.609952962851196
18,4.660631052723034
2,1, 1, 1, 0,21,45.00,60.00,Tuesday
7,-1.7
8,0.0
9,0.0
10,0.0
11,0.0
12,0.0
13,0.0
14,4.301593726551744
15,-3.3594129614400947
16,3.9098430681335687
17,-2.8898023743067826
18,4.619904951955106
2,1, 1, 1, 0,22, 0.00,15.00,Tuesday
7,-1.5499999999999999
8,0.0
9,0.0
10,0.0
11,0.0
12,0.0
13,0.0
14,4.313068263664438
15,-2.8650323814726899
16,3.8976373510911914
17,-2.5841913181477027
18,4.584329144792134
2,1, 1, 1, 0,22,15.00,30.00,Tuesday
7,-1.4
8,0.0
9,0.0
10,0.0
11,0.0
12,0.0
13,0.0
14,4.315207847963528
15,-2.5301830244206346
16,3.911431934842085
17,-2.348539620309964
18,4.561546803971549
2,1, 1, 1, 0,22,30.00,45.00,Tuesday
7,-1.25
8,0.0
9,0.0
10,0.0
11,0.0
12,0.0
13,0.0
14,4.315434306957564
15,-2.3079742328672525
16,3.9209053318647308
17,-2.1783091083228784
18,4.549565252255103
2,1, 1, 1, 0,22,45.00,60.00,Tuesday
7,-1.1
8,0.0
9,0.0
10,0.0
11,0.0
12,0.0
13,0.0
14,4.319538087663773
15,-2.021695898245365
16,3.9366251514056787
17,-1.94961208958631
18,4.543270712177023
2,1, 1, 1, 0,23, 0.00,15.00,Tuesday
7,-1.25
8,0.0
9,0.0
10,0.0
11,0.0
12,0.0
13,0.0
14,4.2786081875919319
15,-2.325096561285059
16,3.9004184908753816
17,-2.2685737693217336
18,4.533007804530329
2,1, 1, 1, 0,23,15.00,30.00,Tuesday
7,-1.4
8,0.0
9,0.0
10,0.0
11,0.0
12,0.0
13,0.0
14,4.241813160566689
15,-2.6295744221077577
16,3.8446883810589727
17,-2.5884067424100865
18,4.513746888821208
2,1, 1, 1, 0,23,30.00,45.00,Tuesday
7,-1.5499999999999999
8,0.0
9,0.0
10,0.0
11,0.0
12,0.0
13,0.0
14,4.198988636093692
15,-2.9347437068774417
16,3.7885020314598139
17,-2.9079090730417649
18,4.486002230778183
2,1, 1, 1, 0,23,45.00,60.00,Tuesday
7,-1.7
8,0.0
9,0.0
10,0.0
11,0.0
12,0.0
13,0.0
14,4.153726883817431
15,-3.2401707845978264
16,3.7279072564638229
17,-3.227440043057527
18,4.45228352004844
2,1, 1, 1, 0,24, 0.00,15.00,Tuesday
7,-1.7
8,0.0
9,0.0
10,0.0
11,0.0
12,0.0
13,0.0
14,4.125198265804808
15,-3.2940196383633149
16,3.6899835989702298
17,-3.2854013016296337
18,4.4175622487276249
2,1, 1, 1, 0,24,15.00,30.00,Tuesday
7,-1.7
8,0.0
9,0.0
10,0.0
11,0.0
12,0.0
13,0.0
14,4.093651331048397
15,-3.3485748278509686
16,3.657316722158612
17,-3.3471112257291226
18,4.384675143542515
2,1, 1, 1, 0,24,30.00,45.00,Tuesday
7,-1.7
8,0.0
9,0.0
10,0.0
11,0.0
12,0.0
13,0.0
14,4.06286907653949
15,-3.4029963652853505
16,3.623934161023442
17,-3.4090192721904488
18,4.353795357710313
2,1, 1, 1, 0,24,45.00,60.00,Tuesday
7,-1.7
8,0.0
9,0.0
10,0.0
11,0.0
12,0.0
13,0.0
14,4.032694354530787
15,-3.4574205471073657
16,3.5912181466027848
17,-3.4708237613740495
18,4.324149990829226
End of Data
 Number of Records Written=        1152
