Program Version,EnergyPlus, Version 9.5.0-de239b2e5f, YMD=2023.02.16 18:15
1,5,Environment Title[],Latitude[deg],Longitude[deg],Time Zone[],Elevation[m]
2,8,Day of Simulation[],Month[],Day of Month[],DST Indicator[1=yes 0=no],Hour[],StartMinute[],EndMinute[],DayType
3,5,Cumulative Day of Simulation[],Month[],Day of Month[],DST Indicator[1=yes 0=no],DayType  ! When Daily Report Variables Requested
4,2,Cumulative Days of Simulation[],Month[]  ! When Monthly Report Variables Requested
5,1,Cumulative Days of Simulation[] ! When Run Period Report Variables Requested
6,1,Calendar Year of Simulation[] ! When Annual Report Variables Requested
7,1,Environment,Site Outdoor Air Drybulb Temperature [C] !TimeStep
8,1,ZONE ONE,Zone Windows Total Transmitted Solar Radiation Rate [W] !TimeStep
9,1,ZN001:WALL001,Surface Outside Face Sunlit Fraction [] !TimeStep
10,1,ZN001:WALL001,Surface Outside Face Incident Solar Radiation Rate per Area [W/m2] !TimeStep
11,1,ZN001:WALL001:WIN001,Surface Outside Face Sunlit Fraction [] !TimeStep
12,1,ZN001:WALL001:WIN001,Surface Outside Face Incident Solar Radiation Rate per Area [W/m2] !TimeStep
13,1,ZN001:WALL001:WIN001,Surface Window Transmitted Solar Radiation Rate [W] !TimeStep
14,1,ZN001:WALL001,Surface Inside Face Temperature [C] !TimeStep
15,1,ZN001:WALL001,Surface Outside Face Temperature [C] !TimeStep
16,1,ZN001:WALL001:WIN001,Surface Inside Face Temperature [C] !TimeStep
17,1,ZN001:WALL001:WIN001,Surface Outside Face Temperature [C] !TimeStep
18,1,ZONE ONE,Zone Mean Air Temperature [C] !TimeStep
End of Data Dictionary
1,RUN PERIOD 1,  41.98, -87.92,  -6.00, 201.00
2,1, 1, 1, 0, 1, 0.00,15.00,Tuesday
7,-4.324999999999999
8,0.0
9,0.0
10,0.0
11,0.0
12,0.0
13,0.0
14,0.46963757220271326
15,-5.995536816484456
16,0.053222271687786818
17,-5.973777427793834
18,0.7960144630414914
2,1, 1, 1, 0, 1,15.00,30.00,Tuesday
7,-6.949999999999999
8,0.0
9,0.0
10,0.0
11,0.0
12,0.0
13,0.0
14,0.3034082778999517
15,-8.463487405298782
16,-0.2738539091945995
17,-8.284373905032567
18,0.7266965549759238
2,1, 1, 1, 0, 1,30.00,45.00,Tuesday
7,-9.575
8,0.0
9,0.0
10,0.0
11,0.0
12,0.0
13,0.0
14,0.12064797132245038
15,-10.93976513065235
16,-0.6016652643264706
17,-10.602174376526705
18,0.6281469474144529
2,1, 1, 1, 0, 1,45.00,60.00,Tuesday
7,-12.2
8,0.0
9,0.0
10,0.0
11,0.0
12,0.0
13,0.0
14,-0.075605567357933
15,-13.422574764339802
16,-0.9415395825437827
17,-12.938816903707619
18,0.5079846227138435
2,1, 1, 1, 0, 2, 0.00,15.00,Tuesday
7,-12.075
8,0.0
9,0.0
10,0.0
11,0.0
12,0.0
13,0.0
14,-0.11834871439146165
15,-13.224164406501569
16,-1.0338430043439076
17,-12.792823652271864
18,0.39751308111526326
2,1, 1, 1, 0, 2,15.00,30.00,Tuesday
7,-11.95
8,0.0
9,0.0
10,0.0
11,0.0
12,0.0
13,0.0
14,-0.17665851826214888
15,-13.046644796463055
16,-1.0735300726311153
17,-12.607524631096453
18,0.3133750690657346
2,1, 1, 1, 0, 2,30.00,45.00,Tuesday
7,-11.825
8,0.0
9,0.0
10,0.0
11,0.0
12,0.0
13,0.0
14,-0.22053608704258058
15,-12.868006436962073
16,-1.10928790071938
17,-12.431480023881932
18,0.2529252726856579
2,1, 1, 1, 0, 2,45.00,60.00,Tuesday
7,-11.7
8,0.0
9,0.0
10,0.0
11,0.0
12,0.0
13,0.0
14,-0.25442273089785696
15,-12.689421400691402
16,-1.133304409788309
17,-12.254599025219705
18,0.20753261452919778
2,1, 1, 1, 0, 3, 0.00,15.00,Tuesday
7,-11.549999999999999
8,0.0
9,0.0
10,0.0
11,0.0
12,0.0
13,0.0
14,-0.287344846290651
15,-12.565483027261294
16,-1.1533459314431412
17,-12.130095108464105
18,0.16924567877658595
2,1, 1, 1, 0, 3,15.00,30.00,Tuesday
7,-11.399999999999999
8,0.0
9,0.0
10,0.0
11,0.0
12,0.0
13,0.0
14,-0.31600701902526487
15,-12.442995704301146
16,-1.1727688378065296
17,-11.999601902993163
18,0.1338082519361339
2,1, 1, 1, 0, 3,30.00,45.00,Tuesday
7,-11.25
8,0.0
9,0.0
10,0.0
11,0.0
12,0.0
13,0.0
14,-0.34467082388172795
15,-12.322175251210288
16,-1.1899194586014233
17,-11.869294580932547
18,0.09963880260351894
2,1, 1, 1, 0, 3,45.00,60.00,Tuesday
7,-11.1
8,0.0
9,0.0
10,0.0
11,0.0
12,0.0
13,0.0
14,-0.37273928865559105
15,-12.203011977516236
16,-1.2066841328052079
17,-11.739784011654706
18,0.06629167192614598
2,1, 1, 1, 0, 4, 0.00,15.00,Tuesday
7,-11.1
8,0.0
9,0.0
10,0.0
11,0.0
12,0.0
13,0.0
14,-0.40389887122781095
15,-12.17135042109686
16,-1.2365451967498303
17,-11.723901640373925
18,0.033342191919569347
2,1, 1, 1, 0, 4,15.00,30.00,Tuesday
7,-11.1
8,0.0
9,0.0
10,0.0
11,0.0
12,0.0
13,0.0
14,-0.4347033307243975
15,-12.14090759577958
16,-1.266934494028078
17,-11.717084323454458
18,0.0005830162517635494
2,1, 1, 1, 0, 4,30.00,45.00,Tuesday
7,-11.1
8,0.0
9,0.0
10,0.0
11,0.0
12,0.0
13,0.0
14,-0.46543140214893316
15,-12.1121449826216
16,-1.295205813867824
17,-11.707787440732432
18,-0.032075880634528586
2,1, 1, 1, 0, 4,45.00,60.00,Tuesday
7,-11.1
8,0.0
9,0.0
10,0.0
11,0.0
12,0.0
13,0.0
14,-0.49612611164812178
15,-12.0849324313499
16,-1.323705040325251
17,-11.698341289389191
18,-0.06464986221096468
2,1, 1, 1, 0, 5, 0.00,15.00,Tuesday
7,-10.975
8,0.0
9,0.0
10,0.0
11,0.0
12,0.0
13,0.0
14,-0.5214640752327449
15,-11.962514952064068
16,-1.3386389990645285
17,-11.586523168201837
18,-0.09649943796550013
2,1, 1, 1, 0, 5,15.00,30.00,Tuesday
7,-10.85
8,0.0
9,0.0
10,0.0
11,0.0
12,0.0
13,0.0
14,-0.5466611432424759
15,-11.840208815456787
16,-1.35415856932525
17,-11.472662513990599
18,-0.1272338126815082
2,1, 1, 1, 0, 5,30.00,45.00,Tuesday
7,-10.725
8,0.0
9,0.0
10,0.0
11,0.0
12,0.0
13,0.0
14,-0.5711383152366688
15,-11.717890465529623
16,-1.36922226347275
17,-11.35863215408392
18,-0.1569267964030248
2,1, 1, 1, 0, 5,45.00,60.00,Tuesday
7,-10.6
8,0.0
9,0.0
10,0.0
11,0.0
12,0.0
13,0.0
14,-0.5949618358046255
15,-11.59558247852428
16,-1.383622640872204
17,-11.24454887019715
18,-0.18580853993745403
2,1, 1, 1, 0, 6, 0.00,15.00,Tuesday
7,-10.6
8,0.0
9,0.0
10,0.0
11,0.0
12,0.0
13,0.0
14,-0.6259619540708725
15,-11.596246222387367
16,-1.4128064586943197
17,-11.242107149825472
18,-0.2151011108442668
2,1, 1, 1, 0, 6,15.00,30.00,Tuesday
7,-10.6
8,0.0
9,0.0
10,0.0
11,0.0
12,0.0
13,0.0
14,-0.6564794113578658
15,-11.59681484584045
16,-1.4417614982779697
17,-11.243127791183213
18,-0.24551020099793365
2,1, 1, 1, 0, 6,30.00,45.00,Tuesday
7,-10.6
8,0.0
9,0.0
10,0.0
11,0.0
12,0.0
13,0.0
14,-0.6874345545470574
15,-11.597418642948968
16,-1.470621034475414
17,-11.245051693108622
18,-0.2769123571312798
2,1, 1, 1, 0, 6,45.00,60.00,Tuesday
7,-10.6
8,0.0
9,0.0
10,0.0
11,0.0
12,0.0
13,0.0
14,-0.7187252588679298
15,-11.598024553018229
16,-1.4998519027327575
17,-11.247258845262082
18,-0.30891109450257189
2,1, 1, 1, 0, 7, 0.00,15.00,Tuesday
7,-10.6
8,0.0
9,0.0
10,0.0
11,0.0
12,0.0
13,0.0
14,-0.7477784995856363
15,-11.571954590712929
16,-1.5272284552307838
17,-11.240176447636373
18,-0.34077544622290775
2,1, 1, 1, 0, 7,15.00,30.00,Tuesday
7,-10.6
8,0.0
9,0.0
10,0.0
11,0.0
12,0.0
13,0.0
14,-0.7769744410255619
15,-11.547232259485386
16,-1.5539786614019704
17,-11.231045683617709
18,-0.3721142369458741
2,1, 1, 1, 0, 7,30.00,45.00,Tuesday
7,-10.6
8,0.0
9,0.0
10,0.0
11,0.0
12,0.0
13,0.0
14,-0.8059314957461481
15,-11.523762353389575
16,-1.5808318365653805
17,-11.221693528339984
18,-0.4029480816136822
2,1, 1, 1, 0, 7,45.00,60.00,Tuesday
7,-10.6
8,0.0
9,0.0
10,0.0
11,0.0
12,0.0
13,0.0
14,-0.8346201396279943
15,-11.501468841803238
16,-1.6074686002880299
17,-11.212509143331886
18,-0.4334161753785339
2,1, 1, 1, 0, 8, 0.00,15.00,Tuesday
7,-10.45
8,0.0
9,0.0
10,0.0
11,0.0
12,0.0
13,0.0
14,-0.864445892470629
15,-11.45402560126367
16,-1.6291981281034396
17,-11.172796662669044
18,-0.4641909324653463
2,1, 1, 1, 0, 8,15.00,30.00,Tuesday
7,-10.3
8,43.92919895502562
9,1.0
10,22.819555959623899
11,1.0
12,22.819555959623899
13,43.92919895502562
14,-0.7974599529675313
15,-9.781546160365624
16,-1.2320231512060219
17,-10.834933217141554
18,-0.4827789725483336
2,1, 1, 1, 0, 8,30.00,45.00,Tuesday
7,-10.15
8,217.30754917639187
9,1.0
10,109.75755355442667
11,1.0
12,109.75755355442667
13,217.30754917639187
14,-0.4651655523849007
15,-3.4263457350740826
16,0.46822703964835457
17,-9.606471641293638
18,-0.45579670280249537
2,1, 1, 1, 0, 8,45.00,60.00,Tuesday
7,-10.0
8,399.4699535945363
9,1.0
10,195.8764694434918
11,1.0
12,195.8764694434918
13,399.4699535945363
14,-0.04465700526426602
15,3.0817410669467968
16,2.048055589053149
17,-8.361487149138612
18,-0.3740340209287502
2,1, 1, 1, 0, 9, 0.00,15.00,Tuesday
7,-9.725
8,585.1489314874541
9,1.0
10,278.97248314719988
11,1.0
12,278.97248314719988
13,585.1489314874541
14,0.24536382504816954
15,8.248907022196521
16,3.505755922122944
17,-7.268642268872668
18,-0.24313121090332047
2,1, 1, 1, 0, 9,15.00,30.00,Tuesday
7,-9.45
8,784.787199245388
9,1.0
10,364.91995730569456
11,1.0
12,364.91995730569456
13,784.787199245388
14,0.5995071581030804
15,13.332253474216076
16,4.96715486401456
17,-6.187667678825221
18,-0.0755122776051927
2,1, 1, 1, 0, 9,30.00,45.00,Tuesday
7,-9.175
8,921.7412871041541
9,1.0
10,420.35879993239237
11,1.0
12,420.35879993239237
13,921.7412871041541
14,0.8259947109741326
15,16.091699667858984
16,5.956597970747794
17,-5.526171539594202
18,0.11063465633700986
2,1, 1, 1, 0, 9,45.00,60.00,Tuesday
7,-8.9
8,1065.0474005418728
9,1.0
10,478.00138373643099
11,1.0
12,478.00138373643099
13,1065.0474005418728
14,1.0947711182912048
15,19.087526223787724
16,6.944280693085716
17,-4.835214927663117
18,0.3110323488045002
2,1, 1, 1, 0,10, 0.00,15.00,Tuesday
7,-8.350000000000002
8,1212.3134782022194
9,1.0
10,536.9185644770597
11,1.0
12,536.9185644770597
13,1212.3134782022194
14,1.3023375845916927
15,20.208971349803105
16,7.965498714720638
17,-4.012481359188882
18,0.5241828263740453
2,1, 1, 1, 0,10,15.00,30.00,Tuesday
7,-7.800000000000001
8,1365.083720287943
9,1.0
10,598.0969199229219
11,1.0
12,598.0969199229219
13,1365.083720287943
14,1.5316562586307352
15,21.46491821027057
16,9.011680432095887
17,-3.2160140375100356
18,0.7463357825502707
2,1, 1, 1, 0,10,30.00,45.00,Tuesday
7,-7.25
8,1468.1999493442264
9,1.0
10,637.6133352894237
11,1.0
12,637.6133352894237
13,1468.1999493442264
14,1.6944583315660578
15,21.527240315144384
16,9.749042067711514
17,-2.64972394112624
18,0.9651980869964852
2,1, 1, 1, 0,10,45.00,60.00,Tuesday
7,-6.7
8,1569.705828175432
9,1.0
10,676.6412284283772
11,1.0
12,676.6412284283772
13,1569.705828175432
14,1.8706408082839723
15,21.68951703312694
16,10.456697961968417
17,-2.087951416825206
18,1.1742843222346363
2,1, 1, 1, 0,11, 0.00,15.00,Tuesday
7,-6.275
8,1669.2149873773784
9,1.0
10,715.0112779846514
11,1.0
12,715.0112779846514
13,1669.2149873773784
14,2.125237726484751
15,23.786625711753719
16,11.162895132167876
17,-1.3583690958791408
18,1.3772428721119073
2,1, 1, 1, 0,11,15.00,30.00,Tuesday
7,-5.85
8,1766.190944948854
9,1.0
10,752.5077794605232
11,1.0
12,752.5077794605232
13,1766.190944948854
14,2.3605519500171394
15,25.72111920231992
16,11.856904171118345
17,-0.6406770283217611
18,1.578341275776818
2,1, 1, 1, 0,11,30.00,45.00,Tuesday
7,-5.425
8,1740.4832380327117
9,1.0
10,742.5988714321785
11,1.0
12,742.5988714321785
13,1740.4832380327117
14,2.4841582869036635
15,25.57265234090122
16,11.897572362792687
17,-0.3391149938719309
18,1.7642991963631947
2,1, 1, 1, 0,11,45.00,60.00,Tuesday
7,-5.0
8,1702.0518597121073
9,1.0
10,727.8169025450712
11,1.0
12,727.8169025450712
13,1702.0518597121073
14,2.6033304471095457
15,25.34274810894869
16,11.844917775612885
17,-0.06934059002776394
18,1.926378884877742
2,1, 1, 1, 0,12, 0.00,15.00,Tuesday
7,-4.575
8,1635.6982778457269
9,1.0
10,700.3759009170325
11,1.0
12,700.3759009170325
13,1635.6982778457269
14,2.6784000658570354
15,24.59956348407655
16,11.613488163457419
17,0.14104114475935604
18,2.060689834932255
2,1, 1, 1, 0,12,15.00,30.00,Tuesday
7,-4.15
8,1584.1822507707826
9,1.0
10,681.6705029034473
11,1.0
12,681.6705029034473
13,1584.1822507707826
14,2.769699324825101
15,24.268546990857858
16,11.48188430821267
17,0.42328514429379995
18,2.1732904085491686
2,1, 1, 1, 0,12,30.00,45.00,Tuesday
7,-3.7249999999999998
8,1386.7884648429923
9,1.0
10,602.01865277251
11,1.0
12,602.01865277251
13,1386.7884648429923
14,2.676489297980079
15,21.23986398965606
16,10.508388293054054
17,0.21719280508170869
18,2.2501145178241659
2,1, 1, 1, 0,12,45.00,60.00,Tuesday
7,-3.3
8,1130.2896420139664
9,1.0
10,493.55004396206007
11,1.0
12,493.55004396206007
13,1130.2896420139664
14,2.4983074304542085
15,17.060660001353367
16,9.051390159546373
17,-0.2628323153242036
18,2.2764679746583287
2,1, 1, 1, 0,13, 0.00,15.00,Tuesday
7,-3.0249999999999996
8,926.9697700398867
9,1.0
10,412.335026418112
11,1.0
12,412.335026418112
13,926.9697700398867
14,2.3840732493338647
15,14.2152444593727
16,7.904094068186282
17,-0.5851527997771768
18,2.2567723047776577
2,1, 1, 1, 0,13,15.00,30.00,Tuesday
7,-2.75
8,673.6692877186736
9,1.0
10,305.94037763660148
11,1.0
12,305.94037763660148
13,673.6692877186736
14,2.1539191204994938
15,10.040658083524516
16,6.352614008793239
17,-1.1387851996609016
18,2.196386983416361
2,1, 1, 1, 0,13,30.00,45.00,Tuesday
7,-2.475
8,612.4821658219637
9,1.0
10,281.0763483922329
11,1.0
12,281.0763483922329
13,612.4821658219637
14,2.1287741981139609
15,9.528375441035643
16,5.9609134414399709
17,-1.010569913676136
18,2.1293664224478157
2,1, 1, 1, 0,13,45.00,60.00,Tuesday
7,-2.2
8,552.552520277972
9,1.0
10,256.7721209415886
11,1.0
12,256.7721209415886
13,552.552520277972
14,2.0956479221659944
15,8.91698838959041
16,5.6122410527925699
17,-0.8606330846725996
18,2.0760701800661525
2,1, 1, 1, 0,14, 0.00,15.00,Tuesday
7,-1.9250000000000003
8,449.8411357962977
9,1.0
10,210.73276284570657
11,1.0
12,210.73276284570657
13,449.8411357962977
14,2.004096173896259
15,7.370088532893781
16,4.914378051112806
17,-0.950926851496888
18,2.031298127787595
2,1, 1, 1, 0,14,15.00,30.00,Tuesday
7,-1.6500000000000002
8,396.7537665575463
9,1.0
10,189.38488290342594
11,1.0
12,189.38488290342594
13,396.7537665575463
14,1.9844445754865408
15,6.964798085133197
16,4.580868652707636
17,-0.8385473893402491
18,1.9942257323009427
2,1, 1, 1, 0,14,30.00,45.00,Tuesday
7,-1.375
8,379.3266897359249
9,1.0
10,179.3940297802914
11,1.0
12,179.3940297802914
13,379.3266897359249
14,1.988183193957171
15,7.084269293418149
16,4.448283754043416
17,-0.6141990054071584
18,1.9660246157813793
2,1, 1, 1, 0,14,45.00,60.00,Tuesday
7,-1.1
8,361.3465167603399
9,1.0
10,169.43349014176136
11,1.0
12,169.43349014176136
13,361.3465167603399
14,1.9924082136948028
15,7.181065920205132
16,4.31562295599241
17,-0.3904380012281763
18,1.9455374335144542
2,1, 1, 1, 0,15, 0.00,15.00,Tuesday
7,-1.1
8,379.75098608822659
9,1.0
10,178.15692317953907
11,1.0
12,178.15692317953907
13,379.75098608822659
14,2.036069409273235
15,7.995060774393081
16,4.455463595369338
17,-0.2773975457882898
18,1.9347648382662253
2,1, 1, 1, 0,15,15.00,30.00,Tuesday
7,-1.1
8,356.65544888641286
9,1.0
10,166.40516310952945
11,1.0
12,166.40516310952945
13,356.65544888641286
14,2.0060582443977057
15,7.630687448672638
16,4.274569852836805
17,-0.36648235502093487
18,1.9272134876908658
2,1, 1, 1, 0,15,30.00,45.00,Tuesday
7,-1.1
8,299.30897077907687
9,1.0
10,140.8967369711617
11,1.0
12,140.8967369711617
13,299.30897077907687
14,1.9267750100660613
15,6.422132836935556
16,3.846906875958666
17,-0.6388950321886568
18,1.9117123122322735
2,1, 1, 1, 0,15,45.00,60.00,Tuesday
7,-1.1
8,245.01101588106585
9,1.0
10,116.57355796743004
11,1.0
12,116.57355796743004
13,245.01101588106585
14,1.8388425916350369
15,5.208181219429988
16,3.417169840377312
17,-0.9166417436573511
18,1.8829753245353454
2,1, 1, 1, 0,16, 0.00,15.00,Tuesday
7,-1.1
8,193.3619366811613
9,1.0
10,93.14939272689483
11,1.0
12,93.14939272689483
13,193.3619366811613
14,1.7597141603593356
15,4.151481719056937
16,2.993708874755555
17,-1.1328469953671743
18,1.8421879870721192
2,1, 1, 1, 0,16,15.00,30.00,Tuesday
7,-1.1
8,119.36636342751545
9,1.0
10,57.94047897402063
11,1.0
12,57.94047897402063
13,119.36636342751545
14,1.6128974390516644
15,2.01959940067409
16,2.337663689497049
17,-1.5433156633288264
18,1.7864188418082359
2,1, 1, 1, 0,16,30.00,45.00,Tuesday
7,-1.1
8,91.9639739168048
9,1.0
10,45.38251793443488
11,1.0
12,45.38251793443488
13,91.9639739168048
14,1.559325595621097
15,1.400132667026909
16,2.051799628556637
17,-1.6713801751599249
18,1.7232965677336206
2,1, 1, 1, 0,16,45.00,60.00,Tuesday
7,-1.1
8,63.83988587375654
9,1.0
10,32.02625108222755
11,1.0
12,32.02625108222755
13,63.83988587375654
14,1.4762802532672255
15,0.5259226074501063
16,1.754788685636754
17,-1.833302957279443
18,1.6587372180090537
2,1, 1, 1, 0,17, 0.00,15.00,Tuesday
7,-1.1
8,34.880124245395318
9,1.0
10,17.762198626050539
11,1.0
12,17.762198626050539
13,34.880124245395318
14,1.365487919655705
15,-0.7403485266474824
16,1.409935996551667
17,-2.13067442044337
18,1.5908281699059495
2,1, 1, 1, 0,17,15.00,30.00,Tuesday
7,-1.1
8,0.0
9,0.0
10,0.0
11,0.0
12,0.0
13,0.0
14,1.209109622355341
15,-2.5837863809166787
16,1.0107990148044337
17,-2.4215379943308337
18,1.5094392912341777
2,1, 1, 1, 0,17,30.00,45.00,Tuesday
7,-1.1
8,0.0
9,0.0
10,0.0
11,0.0
12,0.0
13,0.0
14,1.170305005797152
15,-2.7260047987236937
16,0.9225038002921338
17,-2.5138088986594768
18,1.4236653059766762
2,1, 1, 1, 0,17,45.00,60.00,Tuesday
7,-1.1
8,0.0
9,0.0
10,0.0
11,0.0
12,0.0
13,0.0
14,1.1144004176754439
15,-2.928912003641598
16,0.8699568346681872
17,-2.6191205090822224
18,1.347747035047184
2,1, 1, 1, 0,18, 0.00,15.00,Tuesday
7,-1.25
8,0.0
9,0.0
10,0.0
11,0.0
12,0.0
13,0.0
14,1.0695729650489419
15,-3.0751817008892785
16,0.8063168288143743
17,-2.771349282318056
18,1.286826811273191
2,1, 1, 1, 0,18,15.00,30.00,Tuesday
7,-1.4
8,0.0
9,0.0
10,0.0
11,0.0
12,0.0
13,0.0
14,1.029966144460271
15,-3.2275315595855167
16,0.7597877081351498
17,-2.91166815577094
18,1.2390430500611638
2,1, 1, 1, 0,18,30.00,45.00,Tuesday
7,-1.5499999999999999
8,0.0
9,0.0
10,0.0
11,0.0
12,0.0
13,0.0
14,0.993783451676497
15,-3.3792254450433467
16,0.7133043830833685
17,-3.056195056202
18,1.2001576154094187
2,1, 1, 1, 0,18,45.00,60.00,Tuesday
7,-1.7
8,0.0
9,0.0
10,0.0
11,0.0
12,0.0
13,0.0
14,0.9604555105084984
15,-3.530980950106042
16,0.6698588685566165
17,-3.200170515525599
18,1.1665566480364223
2,1, 1, 1, 0,19, 0.00,15.00,Tuesday
7,-1.825
8,0.0
9,0.0
10,0.0
11,0.0
12,0.0
13,0.0
14,0.9553305627803357
15,-3.365329425198106
16,0.6454139316288092
17,-3.167837297651772
18,1.1395927943009133
2,1, 1, 1, 0,19,15.00,30.00,Tuesday
7,-1.9500000000000002
8,0.0
9,0.0
10,0.0
11,0.0
12,0.0
13,0.0
14,0.9511191542501842
15,-3.283151001626152
16,0.6329894105012954
17,-3.1672835483414589
18,1.1207402596797487
2,1, 1, 1, 0,19,30.00,45.00,Tuesday
7,-2.075
8,0.0
9,0.0
10,0.0
11,0.0
12,0.0
13,0.0
14,0.9414346018236656
15,-3.352750870223832
16,0.6185338209694464
17,-3.250992243403914
18,1.1083318995600216
2,1, 1, 1, 0,19,45.00,60.00,Tuesday
7,-2.2
8,0.0
9,0.0
10,0.0
11,0.0
12,0.0
13,0.0
14,0.934087776741468
15,-3.3169240442766405
16,0.6085054764989195
17,-3.2665866845430289
18,1.0992381380015227
2,1, 1, 1, 0,20, 0.00,15.00,Tuesday
7,-1.9250000000000003
8,0.0
9,0.0
10,0.0
11,0.0
12,0.0
13,0.0
14,0.9427921268374568
15,-3.012246654642786
16,0.6355913402518922
17,-2.9901799179726824
18,1.092604698064399
2,1, 1, 1, 0,20,15.00,30.00,Tuesday
7,-1.6500000000000002
8,0.0
9,0.0
10,0.0
11,0.0
12,0.0
13,0.0
14,0.9520108640362955
15,-2.710975097548634
16,0.664290003684755
17,-2.7129120586610044
18,1.088397192451273
2,1, 1, 1, 0,20,30.00,45.00,Tuesday
7,-1.375
8,0.0
9,0.0
10,0.0
11,0.0
12,0.0
13,0.0
14,0.9623988647376549
15,-2.411146803421462
16,0.6941757793439365
17,-2.43577257770022
18,1.0863540748130996
2,1, 1, 1, 0,20,45.00,60.00,Tuesday
7,-1.1
8,0.0
9,0.0
10,0.0
11,0.0
12,0.0
13,0.0
14,0.9746699802826849
15,-2.112723201702292
16,0.7253107539752364
17,-2.158753671004547
18,1.0861261146067718
2,1, 1, 1, 0,21, 0.00,15.00,Tuesday
7,-1.25
8,0.0
9,0.0
10,0.0
11,0.0
12,0.0
13,0.0
14,0.9425470478448454
15,-2.4078769180966979
16,0.6978034960338846
17,-2.396983013890008
18,1.0825108352345896
2,1, 1, 1, 0,21,15.00,30.00,Tuesday
7,-1.4
8,0.0
9,0.0
10,0.0
11,0.0
12,0.0
13,0.0
14,0.9080957181326896
15,-2.631824143049227
16,0.659471915924712
17,-2.576374768676544
18,1.070762370715645
2,1, 1, 1, 0,21,30.00,45.00,Tuesday
7,-1.5499999999999999
8,0.0
9,0.0
10,0.0
11,0.0
12,0.0
13,0.0
14,0.8608374324083047
15,-2.994268730157195
16,0.6061643866630675
17,-2.837528484284519
18,1.048877545445213
2,1, 1, 1, 0,21,45.00,60.00,Tuesday
7,-1.7
8,0.0
9,0.0
10,0.0
11,0.0
12,0.0
13,0.0
14,0.8085788609659
15,-3.4667773082611714
16,0.5402598074625757
17,-3.1365622167998028
18,1.0180307179376423
2,1, 1, 1, 0,22, 0.00,15.00,Tuesday
7,-1.5499999999999999
8,0.0
9,0.0
10,0.0
11,0.0
12,0.0
13,0.0
14,0.8317354804701214
15,-2.954615755639839
16,0.5448837975274046
17,-2.808455239546902
18,0.9912529752346796
2,1, 1, 1, 0,22,15.00,30.00,Tuesday
7,-1.4
8,0.0
9,0.0
10,0.0
11,0.0
12,0.0
13,0.0
14,0.8452169028058106
15,-2.607741173295447
16,0.5749553665636427
17,-2.554964193864407
18,0.9763641750539792
2,1, 1, 1, 0,22,30.00,45.00,Tuesday
7,-1.25
8,0.0
9,0.0
10,0.0
11,0.0
12,0.0
13,0.0
14,0.8567907026167908
15,-2.3800812604149415
16,0.5981577790593065
17,-2.3709007583706809
18,0.9721130382625861
2,1, 1, 1, 0,22,45.00,60.00,Tuesday
7,-1.1
8,0.0
9,0.0
10,0.0
11,0.0
12,0.0
13,0.0
14,0.871935861544867
15,-2.0840377823774856
16,0.6295998757368579
17,-2.131692456675978
18,0.9740188853937212
2,1, 1, 1, 0,23, 0.00,15.00,Tuesday
7,-1.25
8,0.0
9,0.0
10,0.0
11,0.0
12,0.0
13,0.0
14,0.8407953586658186
15,-2.3879124722068258
16,0.5959261133740483
17,-2.4472134673171697
18,0.9734269501459358
2,1, 1, 1, 0,23,15.00,30.00,Tuesday
7,-1.4
8,0.0
9,0.0
10,0.0
11,0.0
12,0.0
13,0.0
14,0.8093311790996298
15,-2.692464053741556
16,0.5431865075598807
17,-2.7635690616081094
18,0.9648230116312905
2,1, 1, 1, 0,23,30.00,45.00,Tuesday
7,-1.5499999999999999
8,0.0
9,0.0
10,0.0
11,0.0
12,0.0
13,0.0
14,0.7751883803776724
15,-2.997469031605106
16,0.488895334105905
17,-3.0797342132636347
18,0.9478976172764632
2,1, 1, 1, 0,23,45.00,60.00,Tuesday
7,-1.7
8,0.0
9,0.0
10,0.0
11,0.0
12,0.0
13,0.0
14,0.7378789959652131
15,-3.302843205968864
16,0.4317100634362987
17,-3.3959023373218999
18,0.9246073036345136
2,1, 1, 1, 0,24, 0.00,15.00,Tuesday
7,-1.7
8,0.0
9,0.0
10,0.0
11,0.0
12,0.0
13,0.0
14,0.7174359359324807
15,-3.356378695872006
16,0.4014477201516229
17,-3.4528309896783755
18,0.8994731503691739
2,1, 1, 1, 0,24,15.00,30.00,Tuesday
7,-1.7
8,0.0
9,0.0
10,0.0
11,0.0
12,0.0
13,0.0
14,0.694993556642856
15,-3.4107398293910724
16,0.37637970383912036
17,-3.5134943955422388
18,0.8754812695149074
2,1, 1, 1, 0,24,30.00,45.00,Tuesday
7,-1.7
8,0.0
9,0.0
10,0.0
11,0.0
12,0.0
13,0.0
14,0.6728871296240881
15,-3.4650213864043106
16,0.3507600643619071
17,-3.5743725990097348
18,0.8531886287109318
2,1, 1, 1, 0,24,45.00,60.00,Tuesday
7,-1.7
8,0.0
9,0.0
10,0.0
11,0.0
12,0.0
13,0.0
14,0.6512205222742105
15,-3.5192974348983494
16,0.3255557959291764
17,-3.6351670760687968
18,0.8320831165239827
End of Data
 Number of Records Written=        1152
