Program Version,EnergyPlus, Version 9.5.0-de239b2e5f, YMD=2023.02.16 18:15
1,5,Environment Title[],Latitude[deg],Longitude[deg],Time Zone[],Elevation[m]
2,8,Day of Simulation[],Month[],Day of Month[],DST Indicator[1=yes 0=no],Hour[],StartMinute[],EndMinute[],DayType
3,5,Cumulative Day of Simulation[],Month[],Day of Month[],DST Indicator[1=yes 0=no],DayType  ! When Daily Report Variables Requested
4,2,Cumulative Days of Simulation[],Month[]  ! When Monthly Report Variables Requested
5,1,Cumulative Days of Simulation[] ! When Run Period Report Variables Requested
6,1,Calendar Year of Simulation[] ! When Annual Report Variables Requested
7,1,Environment,Site Outdoor Air Drybulb Temperature [C] !TimeStep
8,1,ZONE ONE,Zone Windows Total Transmitted Solar Radiation Rate [W] !TimeStep
9,1,ZN001:WALL001,Surface Outside Face Sunlit Fraction [] !TimeStep
10,1,ZN001:WALL001,Surface Outside Face Incident Solar Radiation Rate per Area [W/m2] !TimeStep
11,1,ZN001:WALL001:WIN001,Surface Outside Face Sunlit Fraction [] !TimeStep
12,1,ZN001:WALL001:WIN001,Surface Outside Face Incident Solar Radiation Rate per Area [W/m2] !TimeStep
13,1,ZN001:WALL001:WIN001,Surface Window Transmitted Solar Radiation Rate [W] !TimeStep
14,1,ZN001:WALL001,Surface Inside Face Temperature [C] !TimeStep
15,1,ZN001:WALL001,Surface Outside Face Temperature [C] !TimeStep
16,1,ZN001:WALL001:WIN001,Surface Inside Face Temperature [C] !TimeStep
17,1,ZN001:WALL001:WIN001,Surface Outside Face Temperature [C] !TimeStep
18,1,ZONE ONE,Zone Mean Air Temperature [C] !TimeStep
End of Data Dictionary
1,RUN PERIOD 1,  41.98, -87.92,  -6.00, 201.00
2,1, 1, 1, 0, 1, 0.00,15.00,Tuesday
7,-4.324999999999999
8,0.0
9,0.0
10,0.0
11,0.0
12,0.0
13,0.0
14,1.6053426365893265
15,-5.97471937953111
16,1.1838140941026155
17,-5.938397017498744
18,1.966063985713091
2,1, 1, 1, 0, 1,15.00,30.00,Tuesday
7,-6.949999999999999
8,0.0
9,0.0
10,0.0
11,0.0
12,0.0
13,0.0
14,1.4384093363551088
15,-8.442606289410895
16,0.8767253412165701
17,-8.262783058516107
18,1.8939861356479795
2,1, 1, 1, 0, 1,30.00,45.00,Tuesday
7,-9.575
8,0.0
9,0.0
10,0.0
11,0.0
12,0.0
13,0.0
14,1.2549591286602156
15,-10.91862441876375
16,0.5677691965339022
17,-10.594533592262679
18,1.793298081420286
2,1, 1, 1, 0, 1,45.00,60.00,Tuesday
7,-12.2
8,0.0
9,0.0
10,0.0
11,0.0
12,0.0
13,0.0
14,1.0580353919316488
15,-13.40118730949002
16,0.24499004716767559
17,-12.935041350670418
18,1.671650387328153
2,1, 1, 1, 0, 2, 0.00,15.00,Tuesday
7,-12.075
8,0.0
9,0.0
10,0.0
11,0.0
12,0.0
13,0.0
14,1.012630807336507
15,-13.202588935353584
16,0.14966059368452989
17,-12.796275269338139
18,1.560008939444622
2,1, 1, 1, 0, 2,15.00,30.00,Tuesday
7,-11.95
8,0.0
9,0.0
10,0.0
11,0.0
12,0.0
13,0.0
14,0.951965661417323
15,-13.025118988189695
16,0.10598620954402804
17,-12.610385833668716
18,1.4746259527131747
2,1, 1, 1, 0, 2,30.00,45.00,Tuesday
7,-11.825
8,0.0
9,0.0
10,0.0
11,0.0
12,0.0
13,0.0
14,0.9057111270302818
15,-12.846546329824001
16,0.06616533787791923
17,-12.433050052701958
18,1.412593664906203
2,1, 1, 1, 0, 2,45.00,60.00,Tuesday
7,-11.7
8,0.0
9,0.0
10,0.0
11,0.0
12,0.0
13,0.0
14,0.8693310377796237
15,-12.668032576519975
16,0.03803186136764225
17,-12.254950333265584
18,1.365219871271545
2,1, 1, 1, 0, 3, 0.00,15.00,Tuesday
7,-11.549999999999999
8,0.0
9,0.0
10,0.0
11,0.0
12,0.0
13,0.0
14,0.8338874619383504
15,-12.54357046192036
16,0.014134686714498912
17,-12.129523476484792
18,1.3246211490591995
2,1, 1, 1, 0, 3,15.00,30.00,Tuesday
7,-11.399999999999999
8,0.0
9,0.0
10,0.0
11,0.0
12,0.0
13,0.0
14,0.8016255051191515
15,-12.420538491399821
16,-0.009187940228343905
17,-11.998112530334652
18,1.286535569188991
2,1, 1, 1, 0, 3,30.00,45.00,Tuesday
7,-11.25
8,0.0
9,0.0
10,0.0
11,0.0
12,0.0
13,0.0
14,0.7712544362524019
15,-12.299111831618568
16,-0.030666888600478616
17,-11.866926451804489
18,1.2496457514224584
2,1, 1, 1, 0, 3,45.00,60.00,Tuesday
7,-11.1
8,0.0
9,0.0
10,0.0
11,0.0
12,0.0
13,0.0
14,0.7393291826429339
15,-12.179391453088876
16,-0.051123964284670368
17,-11.73645494277929
18,1.213476363658017
2,1, 1, 1, 0, 4, 0.00,15.00,Tuesday
7,-11.1
8,0.0
9,0.0
10,0.0
11,0.0
12,0.0
13,0.0
14,0.705386986573663
15,-12.14841368097393
16,-0.08414540328101339
17,-11.720701987476162
18,1.1776183989945628
2,1, 1, 1, 0, 4,15.00,30.00,Tuesday
7,-11.1
8,0.0
9,0.0
10,0.0
11,0.0
12,0.0
13,0.0
14,0.6717298353776932
15,-12.118673029763285
16,-0.1159414702868844
17,-11.710073412348379
18,1.141903057531502
2,1, 1, 1, 0, 4,30.00,45.00,Tuesday
7,-11.1
8,0.0
9,0.0
10,0.0
11,0.0
12,0.0
13,0.0
14,0.6381118825516813
15,-12.090574676259461
16,-0.1475783619611093
17,-11.70008576911681
18,1.1062973086417097
2,1, 1, 1, 0, 4,45.00,60.00,Tuesday
7,-11.1
8,0.0
9,0.0
10,0.0
11,0.0
12,0.0
13,0.0
14,0.6045070561927683
15,-12.063993770812198
16,-0.18157799000573505
17,-11.694148523542822
18,1.07083135814413
2,1, 1, 1, 0, 5, 0.00,15.00,Tuesday
7,-10.975
8,0.0
9,0.0
10,0.0
11,0.0
12,0.0
13,0.0
14,0.5772946235410715
15,-11.941649899567173
16,-0.19965557799287127
17,-11.582463357801317
18,1.0362425482391209
2,1, 1, 1, 0, 5,15.00,30.00,Tuesday
7,-10.85
8,0.0
9,0.0
10,0.0
11,0.0
12,0.0
13,0.0
14,0.54921608120475
15,-11.819442045138656
16,-0.21875170023656666
17,-11.467939022561496
18,1.002849735164158
2,1, 1, 1, 0, 5,30.00,45.00,Tuesday
7,-10.725
8,0.0
9,0.0
10,0.0
11,0.0
12,0.0
13,0.0
14,0.5219783253326327
15,-11.697182954276704
16,-0.237718384120285
17,-11.353224692520144
18,0.9704754169911992
2,1, 1, 1, 0, 5,45.00,60.00,Tuesday
7,-10.6
8,0.0
9,0.0
10,0.0
11,0.0
12,0.0
13,0.0
14,0.49538225824644169
15,-11.574938907578396
16,-0.25598662811307806
17,-11.23845561169992
18,0.9388573994248589
2,1, 1, 1, 0, 6, 0.00,15.00,Tuesday
7,-10.6
8,0.0
9,0.0
10,0.0
11,0.0
12,0.0
13,0.0
14,0.46067210022976476
15,-11.575643068626656
16,-0.2884818498145023
17,-11.236155938476032
18,0.9066631302127165
2,1, 1, 1, 0, 6,15.00,30.00,Tuesday
7,-10.6
8,0.0
9,0.0
10,0.0
11,0.0
12,0.0
13,0.0
14,0.42850146831743027
15,-11.576228471774393
16,-0.3206034140924885
17,-11.237237357961476
18,0.8733866822485928
2,1, 1, 1, 0, 6,30.00,45.00,Tuesday
7,-10.6
8,0.0
9,0.0
10,0.0
11,0.0
12,0.0
13,0.0
14,0.3937227560127419
15,-11.576923641230943
16,-0.35187619345538226
17,-11.239119844632797
18,0.8390945532314252
2,1, 1, 1, 0, 6,45.00,60.00,Tuesday
7,-10.6
8,0.0
9,0.0
10,0.0
11,0.0
12,0.0
13,0.0
14,0.35976837280859627
15,-11.577541344825266
16,-0.3844149719362804
17,-11.241386758413796
18,0.80418109320581
2,1, 1, 1, 0, 7, 0.00,15.00,Tuesday
7,-10.6
8,0.0
9,0.0
10,0.0
11,0.0
12,0.0
13,0.0
14,0.32889079476481739
15,-11.552064747434953
16,-0.4147760881214708
17,-11.234308289263538
18,0.7695496586264395
2,1, 1, 1, 0, 7,15.00,30.00,Tuesday
7,-10.6
8,0.0
9,0.0
10,0.0
11,0.0
12,0.0
13,0.0
14,0.29688865783768655
15,-11.52793176244929
16,-0.4441222522631847
17,-11.225169492185956
18,0.7355586330423395
2,1, 1, 1, 0, 7,30.00,45.00,Tuesday
7,-10.6
8,0.0
9,0.0
10,0.0
11,0.0
12,0.0
13,0.0
14,0.265260351264218
15,-11.50498609125912
16,-0.4739202656625139
17,-11.215863237959298
18,0.7020879880125068
2,1, 1, 1, 0, 7,45.00,60.00,Tuesday
7,-10.6
8,0.0
9,0.0
10,0.0
11,0.0
12,0.0
13,0.0
14,0.2339060799584318
15,-11.483195931573326
16,-0.5034029277127274
17,-11.20671716462914
18,0.6689550633514594
2,1, 1, 1, 0, 8, 0.00,15.00,Tuesday
7,-10.45
8,0.0
9,0.0
10,0.0
11,0.0
12,0.0
13,0.0
14,0.20045081241125149
15,-11.435342005359507
16,-0.5276338867784034
17,-11.166659558719744
18,0.6353640060710438
2,1, 1, 1, 0, 8,15.00,30.00,Tuesday
7,-10.3
8,57.69019600974546
9,1.0
10,22.819555959623899
11,1.0
12,22.819555959623899
13,57.69019600974546
14,0.26835358903015085
15,-9.762671080229103
16,-0.11945982555090495
17,-10.817860203207488
18,0.6148934748636507
2,1, 1, 1, 0, 8,30.00,45.00,Tuesday
7,-10.15
8,285.3800070249231
9,1.0
10,109.75755355442667
11,1.0
12,109.75755355442667
13,285.3800070249231
14,0.6079355503508822
15,-3.4044368451867137
16,1.626710389082973
17,-9.552011338148305
18,0.6436828142997044
2,1, 1, 1, 0, 8,45.00,60.00,Tuesday
7,-10.0
8,524.6055123031704
9,1.0
10,195.8764694434918
11,1.0
12,195.8764694434918
13,524.6055123031704
14,1.0246296347786575
15,3.0871982581197945
16,3.2393135327671418
17,-8.279252848832244
18,0.731592847323437
2,1, 1, 1, 0, 9, 0.00,15.00,Tuesday
7,-9.725
8,768.4491717444191
9,1.0
10,278.97248314719988
11,1.0
12,278.97248314719988
13,768.4491717444191
14,1.3503047216306766
15,8.26983916775569
16,4.721171754791044
17,-7.171924266105407
18,0.8709252181174783
2,1, 1, 1, 0, 9,15.00,30.00,Tuesday
7,-9.45
8,1030.6249243631592
9,1.0
10,364.91995730569456
11,1.0
12,364.91995730569456
13,1030.6249243631592
14,1.719377565568938
15,13.349136061433102
16,6.202674190699213
17,-6.081857821576989
18,1.0482753563980785
2,1, 1, 1, 0, 9,30.00,45.00,Tuesday
7,-9.175
8,1210.4804273274606
9,1.0
10,420.35879993239237
11,1.0
12,420.35879993239237
13,1210.4804273274606
14,1.9594438039276947
15,16.10843422102651
16,7.203061014104037
17,-5.42164875644653
18,1.2446360507129347
2,1, 1, 1, 0, 9,45.00,60.00,Tuesday
7,-8.9
8,1398.6777532574607
9,1.0
10,478.00138373643099
11,1.0
12,478.00138373643099
13,1398.6777532574607
14,2.2440082326455386
15,19.103919887116278
16,8.19970350530133
17,-4.73124662764701
18,1.454019563919256
2,1, 1, 1, 0,10, 0.00,15.00,Tuesday
7,-8.350000000000002
8,1592.0755180216234
9,1.0
10,536.9185644770597
11,1.0
12,536.9185644770597
13,1592.0755180216234
14,2.4679534446142359
15,20.224137298714216
16,9.229605805080269
17,-3.914280353013055
18,1.6783092539121348
2,1, 1, 1, 0,10,15.00,30.00,Tuesday
7,-7.800000000000001
8,1792.701648704855
9,1.0
10,598.0969199229219
11,1.0
12,598.0969199229219
13,1792.701648704855
14,2.715794792303261
15,21.479245630874034
16,10.28650403227175
17,-3.1224084799479216
18,1.914244793648208
2,1, 1, 1, 0,10,30.00,45.00,Tuesday
7,-7.25
8,1928.119448426844
9,1.0
10,637.6133352894237
11,1.0
12,637.6133352894237
13,1928.119448426844
14,2.8960836860048189
15,21.540771768159396
16,11.033653216351013
17,-2.5626139627714794
18,2.1484075614032789
2,1, 1, 1, 0,10,45.00,60.00,Tuesday
7,-6.7
8,2061.422449283195
9,1.0
10,676.6412284283772
11,1.0
12,676.6412284283772
13,2061.422449283195
14,3.090881002753682
15,21.702413102212778
16,11.751170603189735
17,-2.006297250733553
18,2.373242082636836
2,1, 1, 1, 0,11, 0.00,15.00,Tuesday
7,-6.275
8,2192.1032501103888
9,1.0
10,715.0112779846514
11,1.0
12,715.0112779846514
13,2192.1032501103888
14,3.362254127883309
15,23.79969213877585
16,12.466628377742837
17,-1.2764983461681255
18,2.592167585741153
2,1, 1, 1, 0,11,15.00,30.00,Tuesday
7,-5.85
8,2319.457313777197
9,1.0
10,752.5077794605232
11,1.0
12,752.5077794605232
13,2319.457313777197
14,3.6183566827108777
15,25.734284302379604
16,13.169422331315218
17,-0.5589246641907266
18,2.809867867424788
2,1, 1, 1, 0,11,30.00,45.00,Tuesday
7,-5.425
8,2285.6965649767259
9,1.0
10,742.5988714321785
11,1.0
12,742.5988714321785
13,2285.6965649767259
14,3.7555100230150746
15,25.585823140362554
16,13.22328756806263
17,-0.2566224551272853
18,3.0122401478399265
2,1, 1, 1, 0,11,45.00,60.00,Tuesday
7,-5.0
8,2235.2264038775226
9,1.0
10,727.8169025450712
11,1.0
12,727.8169025450712
13,2235.2264038775226
14,3.888834947759228
15,25.35609704143098
16,13.181210190421439
17,0.014037550775981345
18,3.18980036312465
2,1, 1, 1, 0,12, 0.00,15.00,Tuesday
7,-4.575
8,2148.0872974320998
9,1.0
10,700.3759009170325
11,1.0
12,700.3759009170325
13,2148.0872974320998
14,3.97506569515091
15,24.613043489903917
16,12.957431281139748
17,0.22392605704067138
18,3.338369239433653
2,1, 1, 1, 0,12,15.00,30.00,Tuesday
7,-4.15
8,2080.433669087304
9,1.0
10,681.6705029034473
11,1.0
12,681.6705029034473
13,2080.433669087304
14,4.079729312188532
15,24.282182371239466
16,12.836919965742084
17,0.5090590392850345
18,3.4645537398026269
2,1, 1, 1, 0,12,30.00,45.00,Tuesday
7,-3.7249999999999998
8,1821.205491197466
9,1.0
10,602.01865277251
11,1.0
12,602.01865277251
13,1821.205491197466
14,3.9854990135754226
15,21.253517823341519
16,11.872113467868133
17,0.30388863886003039
18,3.553262164293208
2,1, 1, 1, 0,12,45.00,60.00,Tuesday
7,-3.3
8,1484.3573874927543
9,1.0
10,493.55004396206007
11,1.0
12,493.55004396206007
13,1484.3573874927543
14,3.8012530493418268
15,17.074418428857844
16,10.406253551641499
17,-0.1822755431958285
18,3.5873874237724889
2,1, 1, 1, 0,13, 0.00,15.00,Tuesday
7,-3.0249999999999996
8,1217.3467534298216
9,1.0
10,412.335026418112
11,1.0
12,412.335026418112
13,1217.3467534298216
14,3.679860157937119
15,14.229141975567229
16,9.256737713121652
17,-0.5025461938257649
18,3.57286374521125
2,1, 1, 1, 0,13,15.00,30.00,Tuesday
7,-2.75
8,884.698883173216
9,1.0
10,305.94037763660148
11,1.0
12,305.94037763660148
13,884.698883173216
14,3.435782957459516
15,10.054092511726623
16,7.692129061204298
17,-1.0597639239508113
18,3.514026886539499
2,1, 1, 1, 0,13,30.00,45.00,Tuesday
7,-2.475
8,804.3446509208166
9,1.0
10,281.0763483922329
11,1.0
12,281.0763483922329
13,804.3446509208166
14,3.4120351055494329
15,9.543538637591216
16,7.292000973820905
17,-0.9296696038738901
18,3.4462786789360355
2,1, 1, 1, 0,13,45.00,60.00,Tuesday
7,-2.2
8,725.6418045118138
9,1.0
10,256.7721209415886
11,1.0
12,256.7721209415886
13,725.6418045118138
14,3.3768880455284226
15,8.93516761832603
16,6.940444690120444
17,-0.7775202923828601
18,3.3918867484349506
2,1, 1, 1, 0,14, 0.00,15.00,Tuesday
7,-1.9250000000000003
8,590.7556685446293
9,1.0
10,210.73276284570657
11,1.0
12,210.73276284570657
13,590.7556685446293
14,3.2738790497053129
15,7.384337182498078
16,6.229789888780147
17,-0.8695489818915121
18,3.345273230909083
2,1, 1, 1, 0,14,15.00,30.00,Tuesday
7,-1.6500000000000002
8,521.0384688260733
9,1.0
10,189.38488290342594
11,1.0
12,189.38488290342594
13,521.0384688260733
14,3.2550795860881398
15,6.981491807106453
16,5.8880556287922449
17,-0.7545626747699998
18,3.3058150616359187
2,1, 1, 1, 0,14,30.00,45.00,Tuesday
7,-1.375
8,498.15229057485149
9,1.0
10,179.3940297802914
11,1.0
12,179.3940297802914
13,498.15229057485149
14,3.255108144311444
15,7.100678198708798
16,5.7452207781004749
17,-0.5301281445684936
18,3.275243713780055
2,1, 1, 1, 0,14,45.00,60.00,Tuesday
7,-1.1
8,474.5397565900047
9,1.0
10,169.43349014176136
11,1.0
12,169.43349014176136
13,474.5397565900047
14,3.2549584189511227
15,7.1979689391085659
16,5.601958134379174
17,-0.3060811690824039
18,3.252521220512457
2,1, 1, 1, 0,15, 0.00,15.00,Tuesday
7,-1.1
8,498.70949945430098
9,1.0
10,178.15692317953907
11,1.0
12,178.15692317953907
13,498.70949945430098
14,3.3034756718453397
15,8.01572437922365
16,5.742428356957248
17,-0.18912668308996673
18,3.239696642488016
2,1, 1, 1, 0,15,15.00,30.00,Tuesday
7,-1.1
8,468.37919296528846
9,1.0
10,166.40516310952945
11,1.0
12,166.40516310952945
13,468.37919296528846
14,3.2694595050604429
15,7.648587731531796
16,5.5572989876473
17,-0.27850032601128307
18,3.230060695509417
2,1, 1, 1, 0,15,30.00,45.00,Tuesday
7,-1.1
8,393.0687015115151
9,1.0
10,140.8967369711617
11,1.0
12,140.8967369711617
13,393.0687015115151
14,3.1835522139219134
15,6.4399746493768099
16,5.121247973397033
17,-0.5522724366298348
18,3.2119298473664315
2,1, 1, 1, 0,15,45.00,60.00,Tuesday
7,-1.1
8,321.7616953401986
9,1.0
10,116.57355796743004
11,1.0
12,116.57355796743004
13,321.7616953401986
14,3.0913349186073657
15,5.228840811867861
16,4.682232262336356
17,-0.8310769496831654
18,3.1798770945319778
2,1, 1, 1, 0,16, 0.00,15.00,Tuesday
7,-1.1
8,253.93333576075279
9,1.0
10,93.14939272689483
11,1.0
12,93.14939272689483
13,253.93333576075279
14,3.0116353393270907
15,4.173752676890832
16,4.247813904478676
17,-1.0461823193322176
18,3.1345876188684844
2,1, 1, 1, 0,16,15.00,30.00,Tuesday
7,-1.1
8,156.7583535986634
9,1.0
10,57.94047897402063
11,1.0
12,57.94047897402063
13,156.7583535986634
14,2.8584865037468876
15,2.0434792570934907
16,3.5727715313474848
17,-1.4608782033449189
18,3.072709319334705
2,1, 1, 1, 0,16,30.00,45.00,Tuesday
7,-1.1
8,120.7720561106513
9,1.0
10,45.38251793443488
11,1.0
12,45.38251793443488
13,120.7720561106513
14,2.8001590359987738
15,1.4254742920183963
16,3.273945424215981
17,-1.5896547137744506
18,3.0027734748197676
2,1, 1, 1, 0,16,45.00,60.00,Tuesday
7,-1.1
8,83.83798514208277
9,1.0
10,32.02625108222755
11,1.0
12,32.02625108222755
13,83.83798514208277
14,2.7118416341377005
15,0.5538840567461598
16,2.961291232377107
17,-1.7513468011966325
18,2.931437464793548
2,1, 1, 1, 0,17, 0.00,15.00,Tuesday
7,-1.1
8,45.806462499356218
9,1.0
10,17.762198626050539
11,1.0
12,17.762198626050539
13,45.806462499356218
14,2.5964134720843714
15,-0.7089331533817535
16,2.6175812779488298
17,-2.050361569615063
18,2.8565292827226016
2,1, 1, 1, 0,17,15.00,30.00,Tuesday
7,-1.1
8,0.0
9,0.0
10,0.0
11,0.0
12,0.0
13,0.0
14,2.4347905353793415
15,-2.5510364128259437
16,2.2018761526715027
17,-2.353226729704602
18,2.767075079721183
2,1, 1, 1, 0,17,30.00,45.00,Tuesday
7,-1.1
8,0.0
9,0.0
10,0.0
11,0.0
12,0.0
13,0.0
14,2.3904062963925245
15,-2.6921058441260179
16,2.1089304495327498
17,-2.4415839402628309
18,2.675936505921075
2,1, 1, 1, 0,17,45.00,60.00,Tuesday
7,-1.1
8,0.0
9,0.0
10,0.0
11,0.0
12,0.0
13,0.0
14,2.3315130028526558
15,-2.892237093339993
16,2.052881767119402
17,-2.5444629150854327
18,2.5975614570043534
2,1, 1, 1, 0,18, 0.00,15.00,Tuesday
7,-1.25
8,0.0
9,0.0
10,0.0
11,0.0
12,0.0
13,0.0
14,2.2836055578803946
15,-3.0388982059742948
16,1.9870543050082575
17,-2.6978490008657447
18,2.53561797278984
2,1, 1, 1, 0,18,15.00,30.00,Tuesday
7,-1.4
8,0.0
9,0.0
10,0.0
11,0.0
12,0.0
13,0.0
14,2.240652810973521
15,-3.19120604230399
16,1.9393357701833339
17,-2.839242098045588
18,2.486896531941828
2,1, 1, 1, 0,18,30.00,45.00,Tuesday
7,-1.5499999999999999
8,0.0
9,0.0
10,0.0
11,0.0
12,0.0
13,0.0
14,2.2032235800459865
15,-3.3428674762570735
16,1.8914553722460142
17,-2.9847544265963394
18,2.446737713581543
2,1, 1, 1, 0,18,45.00,60.00,Tuesday
7,-1.7
8,0.0
9,0.0
10,0.0
11,0.0
12,0.0
13,0.0
14,2.1674680045570566
15,-3.4947584654880514
16,1.8473197564723023
17,-3.1296900794977775
18,2.4114711502754635
2,1, 1, 1, 0,19, 0.00,15.00,Tuesday
7,-1.825
8,0.0
9,0.0
10,0.0
11,0.0
12,0.0
13,0.0
14,2.159311567169348
15,-3.333205940790907
16,1.8193038812459009
17,-3.101479939843955
18,2.382533601159756
2,1, 1, 1, 0,19,15.00,30.00,Tuesday
7,-1.9500000000000002
8,0.0
9,0.0
10,0.0
11,0.0
12,0.0
13,0.0
14,2.1510518619470218
15,-3.2546569172430219
16,1.8025387122951316
17,-3.1054223876514017
18,2.361397024014469
2,1, 1, 1, 0,19,30.00,45.00,Tuesday
7,-2.075
8,0.0
9,0.0
10,0.0
11,0.0
12,0.0
13,0.0
14,2.137892654742733
15,-3.325192200661977
16,1.7867431962778824
17,-3.1916306665183358
18,2.3463938220104119
2,1, 1, 1, 0,19,45.00,60.00,Tuesday
7,-2.2
8,0.0
9,0.0
10,0.0
11,0.0
12,0.0
13,0.0
14,2.128116874659939
15,-3.2926046501466414
16,1.7724256752552492
17,-3.2111851889701485
18,2.3345168774602524
2,1, 1, 1, 0,20, 0.00,15.00,Tuesday
7,-1.9250000000000003
8,0.0
9,0.0
10,0.0
11,0.0
12,0.0
13,0.0
14,2.133603788581752
15,-2.9888009579017398
16,1.7943371733213099
17,-2.93497963083621
18,2.3250365102998398
2,1, 1, 1, 0,20,15.00,30.00,Tuesday
7,-1.6500000000000002
8,0.0
9,0.0
10,0.0
11,0.0
12,0.0
13,0.0
14,2.1395147320656666
15,-2.688266710516714
16,1.8170901102175777
17,-2.657361778352822
18,2.3179552329068278
2,1, 1, 1, 0,20,30.00,45.00,Tuesday
7,-1.375
8,0.0
9,0.0
10,0.0
11,0.0
12,0.0
13,0.0
14,2.1466619024703266
15,-2.3891472614972488
16,1.8409141526895497
17,-2.379908728313012
18,2.3130084821301266
2,1, 1, 1, 0,20,45.00,60.00,Tuesday
7,-1.1
8,0.0
9,0.0
10,0.0
11,0.0
12,0.0
13,0.0
14,2.155002670672384
15,-2.091402394283894
16,1.8659927480907755
17,-2.1026008349085716
18,2.3097762747655916
2,1, 1, 1, 0,21, 0.00,15.00,Tuesday
7,-1.25
8,0.0
9,0.0
10,0.0
11,0.0
12,0.0
13,0.0
14,2.1201115818200679
15,-2.3830738001778686
16,1.8387332358007598
17,-2.3368967756151735
18,2.302798755997127
2,1, 1, 1, 0,21,15.00,30.00,Tuesday
7,-1.4
8,0.0
9,0.0
10,0.0
11,0.0
12,0.0
13,0.0
14,2.08378527890773
15,-2.605215338164524
16,1.799693076115716
17,-2.5147936378317015
18,2.2874020736968996
2,1, 1, 1, 0,21,30.00,45.00,Tuesday
7,-1.5499999999999999
8,0.0
9,0.0
10,0.0
11,0.0
12,0.0
13,0.0
14,2.03468083150571
15,-2.9632539512144939
16,1.7471677716305294
17,-2.771462472778353
18,2.2618632732750476
2,1, 1, 1, 0,21,45.00,60.00,Tuesday
7,-1.7
8,0.0
9,0.0
10,0.0
11,0.0
12,0.0
13,0.0
14,1.9803494813126684
15,-3.4308171675117538
16,1.682202845776601
17,-3.0663993177575437
18,2.2275993296915157
2,1, 1, 1, 0,22, 0.00,15.00,Tuesday
7,-1.5499999999999999
8,0.0
9,0.0
10,0.0
11,0.0
12,0.0
13,0.0
14,1.9986526194665293
15,-2.9246179489979124
16,1.679675072507166
17,-2.742806493935518
18,2.1977453028637656
2,1, 1, 1, 0,22,15.00,30.00,Tuesday
7,-1.4
8,0.0
9,0.0
10,0.0
11,0.0
12,0.0
13,0.0
14,2.0089084243755046
15,-2.5817216234512867
16,1.7028322502175116
17,-2.493641217686161
18,2.180184868146392
2,1, 1, 1, 0,22,30.00,45.00,Tuesday
7,-1.25
8,0.0
9,0.0
10,0.0
11,0.0
12,0.0
13,0.0
14,2.016541804291682
15,-2.35593176323266
16,1.7208096058655543
17,-2.311242814761272
18,2.173431870341218
2,1, 1, 1, 0,22,45.00,60.00,Tuesday
7,-1.1
8,0.0
9,0.0
10,0.0
11,0.0
12,0.0
13,0.0
14,2.027852591911563
15,-2.0631677957487546
16,1.7458547248380115
17,-2.0762783556095885
18,2.172733139357585
2,1, 1, 1, 0,23, 0.00,15.00,Tuesday
7,-1.25
8,0.0
9,0.0
10,0.0
11,0.0
12,0.0
13,0.0
14,1.9939191843843079
15,-2.3668292212038359
16,1.7129384332251903
17,-2.3940416880900559
18,2.1690325307207858
2,1, 1, 1, 0,23,15.00,30.00,Tuesday
7,-1.4
8,0.0
9,0.0
10,0.0
11,0.0
12,0.0
13,0.0
14,1.9605801354267714
15,-2.671362463259828
16,1.6608370783670808
17,-2.7123597120959177
18,2.1569046763825008
2,1, 1, 1, 0,23,30.00,45.00,Tuesday
7,-1.5499999999999999
8,0.0
9,0.0
10,0.0
11,0.0
12,0.0
13,0.0
14,1.9240957053395267
15,-2.9764108465720504
16,1.6072898475594002
17,-3.0304537622002956
18,2.1363735190702126
2,1, 1, 1, 0,23,45.00,60.00,Tuesday
7,-1.7
8,0.0
9,0.0
10,0.0
11,0.0
12,0.0
13,0.0
14,1.8832032634694607
15,-3.281819389057241
16,1.550540395990879
17,-3.3485344697036227
18,2.1095202585495889
2,1, 1, 1, 0,24, 0.00,15.00,Tuesday
7,-1.7
8,0.0
9,0.0
10,0.0
11,0.0
12,0.0
13,0.0
14,1.8607977247145869
15,-3.3354248735443465
16,1.5175911960213853
17,-3.405821514407819
18,2.0811216939630956
2,1, 1, 1, 0,24,15.00,30.00,Tuesday
7,-1.7
8,0.0
9,0.0
10,0.0
11,0.0
12,0.0
13,0.0
14,1.8352700716457744
15,-3.3898838600490186
16,1.490431989220724
17,-3.466927005274954
18,2.0541663392640929
2,1, 1, 1, 0,24,30.00,45.00,Tuesday
7,-1.7
8,0.0
9,0.0
10,0.0
11,0.0
12,0.0
13,0.0
14,1.8102905087297688
15,-3.4442086115934638
16,1.4624262376496518
17,-3.528258667973546
18,2.0290567089261275
2,1, 1, 1, 0,24,45.00,60.00,Tuesday
7,-1.7
8,0.0
9,0.0
10,0.0
11,0.0
12,0.0
13,0.0
14,1.7858229219884854
15,-3.4985330751810728
16,1.4349458997692182
17,-3.5894979018919459
18,2.0051636297145065
End of Data
 Number of Records Written=        1152
