Program Version,EnergyPlus, Version 9.5.0-de239b2e5f, YMD=2023.02.16 18:16
1,5,Environment Title[],Latitude[deg],Longitude[deg],Time Zone[],Elevation[m]
2,8,Day of Simulation[],Month[],Day of Month[],DST Indicator[1=yes 0=no],Hour[],StartMinute[],EndMinute[],DayType
3,5,Cumulative Day of Simulation[],Month[],Day of Month[],DST Indicator[1=yes 0=no],DayType  ! When Daily Report Variables Requested
4,2,Cumulative Days of Simulation[],Month[]  ! When Monthly Report Variables Requested
5,1,Cumulative Days of Simulation[] ! When Run Period Report Variables Requested
6,1,Calendar Year of Simulation[] ! When Annual Report Variables Requested
7,1,Environment,Site Outdoor Air Drybulb Temperature [C] !TimeStep
8,1,ZONE ONE,Zone Windows Total Transmitted Solar Radiation Rate [W] !TimeStep
9,1,ZN001:WALL001,Surface Outside Face Sunlit Fraction [] !TimeStep
10,1,ZN001:WALL001,Surface Outside Face Incident Solar Radiation Rate per Area [W/m2] !TimeStep
11,1,ZN001:WALL001:WIN001,Surface Outside Face Sunlit Fraction [] !TimeStep
12,1,ZN001:WALL001:WIN001,Surface Outside Face Incident Solar Radiation Rate per Area [W/m2] !TimeStep
13,1,ZN001:WALL001:WIN001,Surface Window Transmitted Solar Radiation Rate [W] !TimeStep
14,1,ZN001:WALL001,Surface Inside Face Temperature [C] !TimeStep
15,1,ZN001:WALL001,Surface Outside Face Temperature [C] !TimeStep
16,1,ZN001:WALL001:WIN001,Surface Inside Face Temperature [C] !TimeStep
17,1,ZN001:WALL001:WIN001,Surface Outside Face Temperature [C] !TimeStep
18,1,ZONE ONE,Zone Mean Air Temperature [C] !TimeStep
End of Data Dictionary
1,RUN PERIOD 1,  41.98, -87.92,  -6.00, 201.00
2,1, 1, 1, 0, 1, 0.00,15.00,Tuesday
7,-4.324999999999999
8,0.0
9,0.0
10,0.0
11,0.0
12,0.0
13,0.0
14,4.812875573170648
15,-5.9162387172883819
16,4.084417123537321
17,-5.620230615547655
18,5.26412008933218
2,1, 1, 1, 0, 1,15.00,30.00,Tuesday
7,-6.949999999999999
8,0.0
9,0.0
10,0.0
11,0.0
12,0.0
13,0.0
14,4.641574824460444
15,-8.38368496250808
16,3.7535844429165765
17,-7.923358200249993
18,5.181643962932614
2,1, 1, 1, 0, 1,30.00,45.00,Tuesday
7,-9.575
8,0.0
9,0.0
10,0.0
11,0.0
12,0.0
13,0.0
14,4.452977837287748
15,-10.859045647568298
16,3.4186243283730279
17,-10.234078711289158
18,5.071064912117247
2,1, 1, 1, 0, 1,45.00,60.00,Tuesday
7,-12.2
8,0.0
9,0.0
10,0.0
11,0.0
12,0.0
13,0.0
14,4.250606225278252
15,-13.340985712307738
16,3.0706716285660606
17,-12.563388315197586
18,4.940517889161758
2,1, 1, 1, 0, 2, 0.00,15.00,Tuesday
7,-12.075
8,0.0
9,0.0
10,0.0
11,0.0
12,0.0
13,0.0
14,4.195295678341062
15,-13.141917760717766
16,2.9691900619397986
17,-12.419355843439746
18,4.821339873365655
2,1, 1, 1, 0, 2,15.00,30.00,Tuesday
7,-11.95
8,0.0
9,0.0
10,0.0
11,0.0
12,0.0
13,0.0
14,4.125668595371864
15,-12.964634608340534
16,2.918636888530955
17,-12.235657092658812
18,4.729218717418686
2,1, 1, 1, 0, 2,30.00,45.00,Tuesday
7,-11.825
8,0.0
9,0.0
10,0.0
11,0.0
12,0.0
13,0.0
14,4.070869441916602
15,-12.786268052494983
16,2.8727615782665909
17,-12.060848483278335
18,4.660378091256481
2,1, 1, 1, 0, 2,45.00,60.00,Tuesday
7,-11.7
8,0.0
9,0.0
10,0.0
11,0.0
12,0.0
13,0.0
14,4.02595765343698
15,-12.607973523736668
16,2.838737947385198
17,-11.88516775885472
18,4.605634012991906
2,1, 1, 1, 0, 3, 0.00,15.00,Tuesday
7,-11.549999999999999
8,0.0
9,0.0
10,0.0
11,0.0
12,0.0
13,0.0
14,3.9820686137134668
15,-12.482058867402879
16,2.8093076109807955
17,-11.755316699491687
18,4.557049263436677
2,1, 1, 1, 0, 3,15.00,30.00,Tuesday
7,-11.399999999999999
8,0.0
9,0.0
10,0.0
11,0.0
12,0.0
13,0.0
14,3.9411496499690599
15,-12.357515088845032
16,2.78019845786298
17,-11.619186702237812
18,4.510535227760737
2,1, 1, 1, 0, 3,30.00,45.00,Tuesday
7,-11.25
8,0.0
9,0.0
10,0.0
11,0.0
12,0.0
13,0.0
14,3.900982769098946
15,-12.234501902382636
16,2.752744838407125
17,-11.483050112368517
18,4.464848593827828
2,1, 1, 1, 0, 3,45.00,60.00,Tuesday
7,-11.1
8,0.0
9,0.0
10,0.0
11,0.0
12,0.0
13,0.0
14,3.8611972771726914
15,-12.113079698269577
16,2.7258307916808919
17,-11.347485565701163
18,4.419818092051844
2,1, 1, 1, 0, 4, 0.00,15.00,Tuesday
7,-11.1
8,0.0
9,0.0
10,0.0
11,0.0
12,0.0
13,0.0
14,3.818111604438027
15,-12.084209990469976
16,2.6841014535964407
17,-11.339368570725697
18,4.375065127599263
2,1, 1, 1, 0, 4,15.00,30.00,Tuesday
7,-11.1
8,0.0
9,0.0
10,0.0
11,0.0
12,0.0
13,0.0
14,3.775463768417768
15,-12.056443865776572
16,2.643416849665641
17,-11.337481540222484
18,4.330370028852206
2,1, 1, 1, 0, 4,30.00,45.00,Tuesday
7,-11.1
8,0.0
9,0.0
10,0.0
11,0.0
12,0.0
13,0.0
14,3.7328291959263075
15,-12.030229079267228
16,2.6029780268440847
17,-11.335992218002503
18,4.28570510790931
2,1, 1, 1, 0, 4,45.00,60.00,Tuesday
7,-11.1
8,0.0
9,0.0
10,0.0
11,0.0
12,0.0
13,0.0
14,3.6902356254282115
15,-12.00543858560281
16,2.562611209231818
17,-11.334591340756788
18,4.241109550424339
2,1, 1, 1, 0, 5, 0.00,15.00,Tuesday
7,-10.975
8,0.0
9,0.0
10,0.0
11,0.0
12,0.0
13,0.0
14,3.6529633918661488
15,-11.88331708909329
16,2.53512242796171
17,-11.229718602548076
18,4.197338298427822
2,1, 1, 1, 0, 5,15.00,30.00,Tuesday
7,-10.85
8,0.0
9,0.0
10,0.0
11,0.0
12,0.0
13,0.0
14,3.6158102111753287
15,-11.761280659616558
16,2.5084750139560016
17,-11.117953436948085
18,4.154768778080411
2,1, 1, 1, 0, 5,30.00,45.00,Tuesday
7,-10.725
8,0.0
9,0.0
10,0.0
11,0.0
12,0.0
13,0.0
14,3.5794641716430979
15,-11.63922680015362
16,2.4822844200706415
17,-11.005692018012553
18,4.113278255532515
2,1, 1, 1, 0, 5,45.00,60.00,Tuesday
7,-10.6
8,0.0
9,0.0
10,0.0
11,0.0
12,0.0
13,0.0
14,3.5438106777303388
15,-11.517183808938121
16,2.4568095742286006
17,-10.893343003073028
18,4.072608782466828
2,1, 1, 1, 0, 6, 0.00,15.00,Tuesday
7,-10.6
8,0.0
9,0.0
10,0.0
11,0.0
12,0.0
13,0.0
14,3.5012691626029537
15,-11.51802787623438
16,2.4185817648077547
17,-10.888973851981348
18,4.031458771573436
2,1, 1, 1, 0, 6,15.00,30.00,Tuesday
7,-10.6
8,0.0
9,0.0
10,0.0
11,0.0
12,0.0
13,0.0
14,3.459332144040737
15,-11.518809072274707
16,2.3789507901569779
17,-10.891756672376232
18,3.9891749232801825
2,1, 1, 1, 0, 6,30.00,45.00,Tuesday
7,-10.6
8,0.0
9,0.0
10,0.0
11,0.0
12,0.0
13,0.0
14,3.416915937567702
15,-11.519630863361965
16,2.3393458844996077
17,-10.894985938301375
18,3.9459520125465405
2,1, 1, 1, 0, 6,45.00,60.00,Tuesday
7,-10.6
8,0.0
9,0.0
10,0.0
11,0.0
12,0.0
13,0.0
14,3.3741992010563495
15,-11.520451918795596
16,2.299368781398016
17,-10.898278336149815
18,3.902217883923918
2,1, 1, 1, 0, 7, 0.00,15.00,Tuesday
7,-10.6
8,0.0
9,0.0
10,0.0
11,0.0
12,0.0
13,0.0
14,3.333572184749328
15,-11.496630308227634
16,2.2598590068105866
17,-10.896038907575985
18,3.8586934711118334
2,1, 1, 1, 0, 7,15.00,30.00,Tuesday
7,-10.6
8,0.0
9,0.0
10,0.0
11,0.0
12,0.0
13,0.0
14,3.2928167376712667
15,-11.474040325606863
16,2.2214673520536509
17,-10.89345631940148
18,3.815737837236988
2,1, 1, 1, 0, 7,30.00,45.00,Tuesday
7,-10.6
8,0.0
9,0.0
10,0.0
11,0.0
12,0.0
13,0.0
14,3.2523661568338455
15,-11.45259828124393
16,2.1832055455772094
17,-10.890958643759803
18,3.7733065735035615
2,1, 1, 1, 0, 7,45.00,60.00,Tuesday
7,-10.6
8,0.0
9,0.0
10,0.0
11,0.0
12,0.0
13,0.0
14,3.21221627197414
15,-11.432236625420274
16,2.145233922756347
17,-10.88854232088994
18,3.731253942740707
2,1, 1, 1, 0, 8, 0.00,15.00,Tuesday
7,-10.45
8,0.0
9,0.0
10,0.0
11,0.0
12,0.0
13,0.0
14,3.1711511334202298
15,-11.383254806991522
16,2.11207164312259
17,-10.85028014023726
18,3.6889549432020516
2,1, 1, 1, 0, 8,15.00,30.00,Tuesday
7,-10.3
8,115.03919117926972
9,1.0
10,22.819555959623899
11,1.0
12,22.819555959623899
13,115.03919117926972
14,3.240421848659822
15,-9.710009314473743
16,2.4234982927104058
17,-10.549491365869017
18,3.66215347024535
2,1, 1, 1, 0, 8,30.00,45.00,Tuesday
7,-10.15
8,564.843581773016
9,1.0
10,109.75755355442667
11,1.0
12,109.75755355442667
13,564.843581773016
14,3.609446380281894
15,-3.3431159734663606
16,3.852898403234292
17,-9.46717203342098
18,3.6934554278188735
2,1, 1, 1, 0, 8,45.00,60.00,Tuesday
7,-10.0
8,1027.107415698465
9,1.0
10,195.8764694434918
11,1.0
12,195.8764694434918
13,1027.107415698465
14,4.05779773358886
15,3.1334249751590734
16,5.315265747252113
17,-8.360745590586135
18,3.7916633719769794
2,1, 1, 1, 0, 9, 0.00,15.00,Tuesday
7,-9.725
8,1487.7790350735168
9,1.0
10,278.97248314719988
11,1.0
12,278.97248314719988
13,1487.7790350735168
14,4.4600866493920849
15,8.322815951667938
16,6.6745134375930779
17,-7.370061014549492
18,3.943176304158433
2,1, 1, 1, 0, 9,15.00,30.00,Tuesday
7,-9.45
8,1973.3797118442713
9,1.0
10,364.91995730569456
11,1.0
12,364.91995730569456
13,1973.3797118442713
14,4.8646394116205029
15,13.396978033348717
16,8.057427709856939
17,-6.37901647659362
18,4.136876903977446
2,1, 1, 1, 0, 9,30.00,45.00,Tuesday
7,-9.175
8,2294.651274485231
9,1.0
10,420.35879993239237
11,1.0
12,420.35879993239237
13,2294.651274485231
14,5.141313911579161
15,16.155145237103814
16,9.015218275259258
17,-5.760061594224339
18,4.353254426162857
2,1, 1, 1, 0, 9,45.00,60.00,Tuesday
7,-8.9
8,2628.157408555287
9,1.0
10,478.00138373643099
11,1.0
12,478.00138373643099
13,2628.157408555287
14,5.469887459352326
15,19.149680619476496
16,9.963377647690209
17,-5.117240371005323
18,4.58225053945567
2,1, 1, 1, 0,10, 0.00,15.00,Tuesday
7,-8.350000000000002
8,2968.709586547734
9,1.0
10,536.9185644770597
11,1.0
12,536.9185644770597
13,2968.709586547734
14,5.7412279672523829
15,20.266616306275595
16,10.947368923216857
17,-4.326796774401373
18,4.825533230816039
2,1, 1, 1, 0,10,15.00,30.00,Tuesday
7,-7.800000000000001
8,3321.0268194611828
9,1.0
10,598.0969199229219
11,1.0
12,598.0969199229219
13,3321.0268194611828
14,6.038480265869049
15,21.51923378511902
16,11.950603545305512
17,-3.563522256128067
18,5.089632657746227
2,1, 1, 1, 0,10,30.00,45.00,Tuesday
7,-7.25
8,3552.151013375401
9,1.0
10,637.6133352894237
11,1.0
12,637.6133352894237
13,3552.151013375401
14,6.265534183819089
15,21.578589503299694
16,12.68145186874375
17,-3.021531726950002
18,5.360482387880986
2,1, 1, 1, 0,10,45.00,60.00,Tuesday
7,-6.7
8,3779.8708706745844
9,1.0
10,676.6412284283772
11,1.0
12,676.6412284283772
13,3779.8708706745844
14,6.512812081834568
15,21.738473087052179
16,13.379876002699973
17,-2.458832517805149
18,5.626939928272367
2,1, 1, 1, 0,11, 0.00,15.00,Tuesday
7,-6.275
8,4003.447923168032
9,1.0
10,715.0112779846514
11,1.0
12,715.0112779846514
13,4003.447923168032
14,6.835853478394478
15,23.83617161822885
16,14.081875206851749
17,-1.761547273586757
18,5.890768781819787
2,1, 1, 1, 0,11,15.00,30.00,Tuesday
7,-5.85
8,4221.762249309513
9,1.0
10,752.5077794605232
11,1.0
12,752.5077794605232
13,4221.762249309513
14,7.146473488881845
15,25.771083786271498
16,14.776913107421933
17,-1.0740943896327054
18,6.156236483620476
2,1, 1, 1, 0,11,30.00,45.00,Tuesday
7,-5.425
8,4156.879578089225
9,1.0
10,742.5988714321785
11,1.0
12,742.5988714321785
13,4156.879578089225
14,7.326206408433942
15,25.622795959704967
16,14.887260771876754
17,-0.7652256300371505
18,6.407354128624459
2,1, 1, 1, 0,11,45.00,60.00,Tuesday
7,-5.0
8,4064.169807818047
9,1.0
10,727.8169025450712
11,1.0
12,727.8169025450712
13,4064.169807818047
14,7.501183835916402
15,25.393604719346248
16,14.907502798151143
17,-0.48331926449452569
18,6.632481628149264
2,1, 1, 1, 0,12, 0.00,15.00,Tuesday
7,-4.575
8,3904.7370931113848
9,1.0
10,700.3759009170325
11,1.0
12,700.3759009170325
13,3904.7370931113848
14,7.621256489634729
15,24.650988091737287
16,14.770284970313128
17,-0.24779691293406359
18,6.825399467572262
2,1, 1, 1, 0,12,15.00,30.00,Tuesday
7,-4.15
8,3786.4971101905705
9,1.0
10,681.6705029034473
11,1.0
12,681.6705029034473
13,3786.4971101905705
14,7.7628255833572219
15,24.320585558176125
16,14.709158890844492
17,0.04981058771454627
18,6.993324395408899
2,1, 1, 1, 0,12,30.00,45.00,Tuesday
7,-3.7249999999999998
8,3324.2291040318089
9,1.0
10,602.01865277251
11,1.0
12,602.01865277251
13,3324.2291040318089
14,7.678067997306582
15,21.292166432802199
16,13.900037398173425
17,-0.09474833893466439
18,7.116717962028426
2,1, 1, 1, 0,12,45.00,60.00,Tuesday
7,-3.3
8,2714.939666512416
9,1.0
10,493.55004396206007
11,1.0
12,493.55004396206007
13,2714.939666512416
14,7.487583766323586
15,17.113705676901728
16,12.636975590279178
17,-0.476318183290914
18,7.17472329147965
2,1, 1, 1, 0,13, 0.00,15.00,Tuesday
7,-3.0249999999999996
8,2241.7153986594264
9,1.0
10,412.335026418112
11,1.0
12,412.335026418112
13,2241.7153986594264
14,7.351235321629658
15,14.26947404512037
16,11.61447772182396
17,-0.7341702089925661
18,7.181552410892263
2,1, 1, 1, 0,13,15.00,30.00,Tuesday
7,-2.75
8,1641.850123185226
9,1.0
10,305.94037763660148
11,1.0
12,305.94037763660148
13,1641.850123185226
14,7.064083267590559
15,10.095457262137895
16,10.234390455161929
17,-1.1949531163551797
18,7.143928740916852
2,1, 1, 1, 0,13,30.00,45.00,Tuesday
7,-2.475
8,1498.9510431694724
9,1.0
10,281.0763483922329
11,1.0
12,281.0763483922329
13,1498.9510431694724
14,7.047217477873911
15,9.584762506223667
16,9.859980041822724
17,-1.0456497288663514
18,7.090490724667413
2,1, 1, 1, 0,13,45.00,60.00,Tuesday
7,-2.2
8,1359.0287484929959
9,1.0
10,256.7721209415886
11,1.0
12,256.7721209415886
13,1359.0287484929959
14,7.010848643394853
15,8.977416592882309
16,9.565807147873557
17,-0.8739390955091153
18,7.044432692302994
2,1, 1, 1, 0,14, 0.00,15.00,Tuesday
7,-1.9250000000000003
8,1110.188267973163
9,1.0
10,210.73276284570657
11,1.0
12,210.73276284570657
13,1110.188267973163
14,6.888365337505283
15,7.428889063403236
16,8.955898316353796
17,-0.9179721146095972
18,7.001793371704077
2,1, 1, 1, 0,14,15.00,30.00,Tuesday
7,-1.6500000000000002
8,986.2055451828589
9,1.0
10,189.38488290342594
11,1.0
12,189.38488290342594
13,986.2055451828589
14,6.866353110690061
15,7.0268757600914208
16,8.645204214157332
17,-0.7836494995428893
18,6.963068769685888
2,1, 1, 1, 0,14,30.00,45.00,Tuesday
7,-1.375
8,940.5609907953474
9,1.0
10,179.3940297802914
11,1.0
12,179.3940297802914
13,940.5609907953474
14,6.859564521384574
15,7.147707036989218
16,8.538221727343626
17,-0.5430888832735832
18,6.931279209816023
2,1, 1, 1, 0,14,45.00,60.00,Tuesday
7,-1.1
8,894.3949724036753
9,1.0
10,169.43349014176136
11,1.0
12,169.43349014176136
13,894.3949724036753
14,6.8511335589345478
15,7.246594350832764
16,8.425755884062312
17,-0.3027177354194919
18,6.90606285816467
2,1, 1, 1, 0,15, 0.00,15.00,Tuesday
7,-1.1
8,941.4068197394458
9,1.0
10,178.15692317953907
11,1.0
12,178.15692317953907
13,941.4068197394458
14,6.89968089285362
15,8.063164016803749
16,8.544456024214924
17,-0.19679695980050838
18,6.891067984105593
2,1, 1, 1, 0,15,15.00,30.00,Tuesday
7,-1.1
8,884.4258525960432
9,1.0
10,166.40516310952945
11,1.0
12,166.40516310952945
13,884.4258525960432
14,6.859296265495343
15,7.699917353533126
16,8.395381988186728
17,-0.26646684193065087
18,6.879144727213468
2,1, 1, 1, 0,15,30.00,45.00,Tuesday
7,-1.1
8,745.7319878230006
9,1.0
10,140.8967369711617
11,1.0
12,140.8967369711617
13,745.7319878230006
14,6.757017313983722
15,6.492166065671506
16,8.003386554392307
17,-0.5035431465067859
18,6.8576069554665859
2,1, 1, 1, 0,15,45.00,60.00,Tuesday
7,-1.1
8,613.6766501346383
9,1.0
10,116.57355796743004
11,1.0
12,116.57355796743004
13,613.6766501346383
14,6.661161061529809
15,5.2873810065268789
16,7.602404617962634
17,-0.7457661984378206
18,6.819334031063317
2,1, 1, 1, 0,16, 0.00,15.00,Tuesday
7,-1.1
8,487.0488027440361
9,1.0
10,93.14939272689483
11,1.0
12,93.14939272689483
13,487.0488027440361
14,6.566457369115854
15,4.234468813911159
16,7.204345834832907
17,-0.9198903453777803
18,6.765061152869398
2,1, 1, 1, 0,16,15.00,30.00,Tuesday
7,-1.1
8,302.3607792671943
9,1.0
10,57.94047897402063
11,1.0
12,57.94047897402063
13,302.3607792671943
14,6.391257420254772
15,2.109674206914015
16,6.577700631617233
17,-1.260095449433436
18,6.690666678491393
2,1, 1, 1, 0,16,30.00,45.00,Tuesday
7,-1.1
8,234.42837183280779
9,1.0
10,45.38251793443488
11,1.0
12,45.38251793443488
13,234.42837183280779
14,6.321544644289728
15,1.4973430164698099
16,6.298335445068517
17,-1.3582540983355216
18,6.605385171931597
2,1, 1, 1, 0,16,45.00,60.00,Tuesday
7,-1.1
8,163.64653449269407
9,1.0
10,32.02625108222755
11,1.0
12,32.02625108222755
13,163.64653449269407
14,6.218658069817971
15,0.632850153220836
16,6.041865800660787
17,-1.4746715215253517
18,6.515699544219289
2,1, 1, 1, 0,17, 0.00,15.00,Tuesday
7,-1.1
8,89.75989496584296
9,1.0
10,17.762198626050539
11,1.0
12,17.762198626050539
13,89.75989496584296
14,6.087447834474281
15,-0.620429538432542
16,5.747720317848234
17,-1.722425606915067
18,6.424936884843914
2,1, 1, 1, 0,17,15.00,30.00,Tuesday
7,-1.1
8,0.0
9,0.0
10,0.0
11,0.0
12,0.0
13,0.0
14,5.909495014496079
15,-2.4583678202043806
16,5.394911015230946
17,-1.9831712002459768
18,6.324516407722248
2,1, 1, 1, 0,17,30.00,45.00,Tuesday
7,-1.1
8,0.0
9,0.0
10,0.0
11,0.0
12,0.0
13,0.0
14,5.856455939334269
15,-2.595294710789908
16,5.288947828155756
17,-2.053879373807149
18,6.227458231616219
2,1, 1, 1, 0,17,45.00,60.00,Tuesday
7,-1.1
8,0.0
9,0.0
10,0.0
11,0.0
12,0.0
13,0.0
14,5.789666351155198
15,-2.787666391583696
16,5.226337761943228
17,-2.1371194708783607
18,6.145852001853642
2,1, 1, 1, 0,18, 0.00,15.00,Tuesday
7,-1.25
8,0.0
9,0.0
10,0.0
11,0.0
12,0.0
13,0.0
14,5.734466880922959
15,-2.9352677527881587
16,5.152551935558108
17,-2.2912717044267199
18,6.080928968618019
2,1, 1, 1, 0,18,15.00,30.00,Tuesday
7,-1.4
8,0.0
9,0.0
10,0.0
11,0.0
12,0.0
13,0.0
14,5.684425542152356
15,-3.0875912877602027
16,5.09253679372307
17,-2.4348388185769069
18,6.0281469804004
2,1, 1, 1, 0,18,30.00,45.00,Tuesday
7,-1.5499999999999999
8,0.0
9,0.0
10,0.0
11,0.0
12,0.0
13,0.0
14,5.638759593575427
15,-3.239415557068671
16,5.037025647080782
17,-2.578891634624256
18,5.982431806543249
2,1, 1, 1, 0,18,45.00,60.00,Tuesday
7,-1.7
8,0.0
9,0.0
10,0.0
11,0.0
12,0.0
13,0.0
14,5.595357108186516
15,-3.3914010203027269
16,4.98479740345806
17,-2.7225577222217227
18,5.940367762265091
2,1, 1, 1, 0,19, 0.00,15.00,Tuesday
7,-1.825
8,0.0
9,0.0
10,0.0
11,0.0
12,0.0
13,0.0
14,5.577623687960117
15,-3.241710156523393
16,4.951117431594071
17,-2.7221805133294767
18,5.903909067792012
2,1, 1, 1, 0,19,15.00,30.00,Tuesday
7,-1.9500000000000002
8,0.0
9,0.0
10,0.0
11,0.0
12,0.0
13,0.0
14,5.559200338544439
15,-3.1735984738748854
16,4.925271777625198
17,-2.7537316037718257
18,5.874761275421958
2,1, 1, 1, 0,19,30.00,45.00,Tuesday
7,-2.075
8,0.0
9,0.0
10,0.0
11,0.0
12,0.0
13,0.0
14,5.536175302617752
15,-3.246964385120599
16,4.896488751152731
17,-2.847475096443077
18,5.851211132654856
2,1, 1, 1, 0,19,45.00,60.00,Tuesday
7,-2.2
8,0.0
9,0.0
10,0.0
11,0.0
12,0.0
13,0.0
14,5.516408012277289
15,-3.223624481375529
16,4.873180081082296
17,-2.8963760356150489
18,5.830204786599272
2,1, 1, 1, 0,20, 0.00,15.00,Tuesday
7,-1.9250000000000003
8,0.0
9,0.0
10,0.0
11,0.0
12,0.0
13,0.0
14,5.512407584974695
15,-2.9221316146437874
16,4.884476156064295
17,-2.6291850596576866
18,5.811409320506392
2,1, 1, 1, 0,20,15.00,30.00,Tuesday
7,-1.6500000000000002
8,0.0
9,0.0
10,0.0
11,0.0
12,0.0
13,0.0
14,5.507940959410287
15,-2.6237071596490737
16,4.899768496687955
17,-2.360968081617898
18,5.795030749515072
2,1, 1, 1, 0,20,30.00,45.00,Tuesday
7,-1.375
8,0.0
9,0.0
10,0.0
11,0.0
12,0.0
13,0.0
14,5.504865588305285
15,-2.3265539834215596
16,4.915900632533351
17,-2.0925774290583378
18,5.7808020504043819
2,1, 1, 1, 0,20,45.00,60.00,Tuesday
7,-1.1
8,0.0
9,0.0
10,0.0
11,0.0
12,0.0
13,0.0
14,5.503029293198226
15,-2.03068359542015
16,4.933371624073175
17,-1.8239771352492654
18,5.768265650369055
2,1, 1, 1, 0,21, 0.00,15.00,Tuesday
7,-1.25
8,0.0
9,0.0
10,0.0
11,0.0
12,0.0
13,0.0
14,5.459583805646218
15,-2.312738204095748
16,4.899036410952249
17,-2.0261909949300049
18,5.751366522154987
2,1, 1, 1, 0,21,15.00,30.00,Tuesday
7,-1.4
8,0.0
9,0.0
10,0.0
11,0.0
12,0.0
13,0.0
14,5.417413927213396
15,-2.529762638591098
16,4.852863593323718
17,-2.184453026976769
18,5.725642097733926
2,1, 1, 1, 0,21,30.00,45.00,Tuesday
7,-1.5499999999999999
8,0.0
9,0.0
10,0.0
11,0.0
12,0.0
13,0.0
14,5.361701897316234
15,-2.8753084077921717
16,4.797209278111154
17,-2.404965230332323
18,5.689913979543817
2,1, 1, 1, 0,21,45.00,60.00,Tuesday
7,-1.7
8,0.0
9,0.0
10,0.0
11,0.0
12,0.0
13,0.0
14,5.30049121583692
15,-3.3286097845800608
16,4.724922198958666
17,-2.664657986169459
18,5.64600395362553
2,1, 1, 1, 0,22, 0.00,15.00,Tuesday
7,-1.5499999999999999
8,0.0
9,0.0
10,0.0
11,0.0
12,0.0
13,0.0
14,5.3088066923242149
15,-2.8393438953252936
16,4.712398518173586
17,-2.3898987299381817
18,5.6075871787649869
2,1, 1, 1, 0,22,15.00,30.00,Tuesday
7,-1.4
8,0.0
9,0.0
10,0.0
11,0.0
12,0.0
13,0.0
14,5.306392837705677
15,-2.507984848145873
16,4.724755195303146
17,-2.175018324705775
18,5.582091773601754
2,1, 1, 1, 0,22,30.00,45.00,Tuesday
7,-1.25
8,0.0
9,0.0
10,0.0
11,0.0
12,0.0
13,0.0
14,5.303097089145436
15,-2.287293301633673
16,4.733140996930786
17,-2.014634948207913
18,5.567314076401991
2,1, 1, 1, 0,22,45.00,60.00,Tuesday
7,-1.1
8,0.0
9,0.0
10,0.0
11,0.0
12,0.0
13,0.0
14,5.303786415793397
15,-2.0038129248001166
16,4.746994437426963
17,-1.8039636606747536
18,5.558074820895256
2,1, 1, 1, 0,23, 0.00,15.00,Tuesday
7,-1.25
8,0.0
9,0.0
10,0.0
11,0.0
12,0.0
13,0.0
14,5.26069730563699
15,-2.3071417411955994
16,4.703101022600094
17,-2.1186403849619639
18,5.544606479116498
2,1, 1, 1, 0,23,15.00,30.00,Tuesday
7,-1.4
8,0.0
9,0.0
10,0.0
11,0.0
12,0.0
13,0.0
14,5.220283304880553
15,-2.6116670878455729
16,4.6407680893843239
17,-2.435698644139279
18,5.521834836603107
2,1, 1, 1, 0,23,30.00,45.00,Tuesday
7,-1.5499999999999999
8,0.0
9,0.0
10,0.0
11,0.0
12,0.0
13,0.0
14,5.175666054451349
15,-2.9168326906592068
16,4.577240358117592
17,-2.7524650911070696
18,5.490556040442694
2,1, 1, 1, 0,23,45.00,60.00,Tuesday
7,-1.7
8,0.0
9,0.0
10,0.0
11,0.0
12,0.0
13,0.0
14,5.127419215210469
15,-3.2223405931934638
16,4.50995618851033
17,-3.0692504402786655
18,5.453431852104885
2,1, 1, 1, 0,24, 0.00,15.00,Tuesday
7,-1.7
8,0.0
9,0.0
10,0.0
11,0.0
12,0.0
13,0.0
14,5.095873013159685
15,-3.276270776654612
16,4.4684956621096039
17,-3.1279625574762806
18,5.415509619254188
2,1, 1, 1, 0,24,15.00,30.00,Tuesday
7,-1.7
8,0.0
9,0.0
10,0.0
11,0.0
12,0.0
13,0.0
14,5.0612967058158839
15,-3.3308785663463449
16,4.432434714038436
17,-3.1896914248396799
18,5.379584273188428
2,1, 1, 1, 0,24,30.00,45.00,Tuesday
7,-1.7
8,0.0
9,0.0
10,0.0
11,0.0
12,0.0
13,0.0
14,5.0275771360102079
15,-3.3853496483621106
16,4.395710046684883
17,-3.2516211020046628
18,5.345742402237492
2,1, 1, 1, 0,24,45.00,60.00,Tuesday
7,-1.7
8,0.0
9,0.0
10,0.0
11,0.0
12,0.0
13,0.0
14,4.994504964019349
15,-3.4398246303753909
16,4.359724816097241
17,-3.3134277814685335
18,5.3131509026372119
End of Data
 Number of Records Written=        1152
