Program Version,EnergyPlus, Version 9.5.0-de239b2e5f, YMD=2023.02.16 18:15
1,5,Environment Title[],Latitude[deg],Longitude[deg],Time Zone[],Elevation[m]
2,8,Day of Simulation[],Month[],Day of Month[],DST Indicator[1=yes 0=no],Hour[],StartMinute[],EndMinute[],DayType
3,5,Cumulative Day of Simulation[],Month[],Day of Month[],DST Indicator[1=yes 0=no],DayType  ! When Daily Report Variables Requested
4,2,Cumulative Days of Simulation[],Month[]  ! When Monthly Report Variables Requested
5,1,Cumulative Days of Simulation[] ! When Run Period Report Variables Requested
6,1,Calendar Year of Simulation[] ! When Annual Report Variables Requested
7,1,Environment,Site Outdoor Air Drybulb Temperature [C] !TimeStep
8,1,ZONE ONE,Zone Windows Total Transmitted Solar Radiation Rate [W] !TimeStep
9,1,ZN001:WALL001,Surface Outside Face Sunlit Fraction [] !TimeStep
10,1,ZN001:WALL001,Surface Outside Face Incident Solar Radiation Rate per Area [W/m2] !TimeStep
11,1,ZN001:WALL001:WIN001,Surface Outside Face Sunlit Fraction [] !TimeStep
12,1,ZN001:WALL001:WIN001,Surface Outside Face Incident Solar Radiation Rate per Area [W/m2] !TimeStep
13,1,ZN001:WALL001:WIN001,Surface Window Transmitted Solar Radiation Rate [W] !TimeStep
14,1,ZN001:WALL001,Surface Inside Face Temperature [C] !TimeStep
15,1,ZN001:WALL001,Surface Outside Face Temperature [C] !TimeStep
16,1,ZN001:WALL001:WIN001,Surface Inside Face Temperature [C] !TimeStep
17,1,ZN001:WALL001:WIN001,Surface Outside Face Temperature [C] !TimeStep
18,1,ZONE ONE,Zone Mean Air Temperature [C] !TimeStep
End of Data Dictionary
1,RUN PERIOD 1,  41.98, -87.92,  -6.00, 201.00
2,1, 1, 1, 0, 1, 0.00,15.00,Tuesday
7,-4.324999999999999
8,0.0
9,0.0
10,0.0
11,0.0
12,0.0
13,0.0
14,0.4999727163843997
15,-5.9949784097488358
16,0.11097653648073447
17,-5.992502939533779
18,0.8274962408803224
2,1, 1, 1, 0, 1,15.00,30.00,Tuesday
7,-6.949999999999999
8,0.0
9,0.0
10,0.0
11,0.0
12,0.0
13,0.0
14,0.3339358956925786
15,-8.46292654041796
16,-0.20689098885986824
17,-8.31004753299544
18,0.7584066372787346
2,1, 1, 1, 0, 1,30.00,45.00,Tuesday
7,-9.575
8,0.0
9,0.0
10,0.0
11,0.0
12,0.0
13,0.0
14,0.15145221076260433
15,-10.939189676873843
16,-0.5255266742574349
17,-10.634799690633315
18,0.6602226702452052
2,1, 1, 1, 0, 1,45.00,60.00,Tuesday
7,-12.2
8,0.0
9,0.0
10,0.0
11,0.0
12,0.0
13,0.0
14,-0.04446425962930923
15,-13.421984676953312
16,-0.8563389422514547
17,-12.978302868255526
18,0.54052086371018
2,1, 1, 1, 0, 2, 0.00,15.00,Tuesday
7,-12.075
8,0.0
9,0.0
10,0.0
11,0.0
12,0.0
13,0.0
14,-0.08702845074795801
15,-13.223562874415558
16,-0.9494700457092904
17,-12.830795785082217
18,0.43043844037799147
2,1, 1, 1, 0, 2,15.00,30.00,Tuesday
7,-11.95
8,0.0
9,0.0
10,0.0
11,0.0
12,0.0
13,0.0
14,-0.14516175019519488
15,-13.046040563164807
16,-0.9898041852377446
17,-12.64476344144748
18,0.3465576124575375
2,1, 1, 1, 0, 2,30.00,45.00,Tuesday
7,-11.825
8,0.0
9,0.0
10,0.0
11,0.0
12,0.0
13,0.0
14,-0.18892733770299797
15,-12.867402469665329
16,-1.0262831229830454
17,-12.468009663504234
18,0.28625569990595126
2,1, 1, 1, 0, 2,45.00,60.00,Tuesday
7,-11.7
8,0.0
9,0.0
10,0.0
11,0.0
12,0.0
13,0.0
14,-0.2227457041160318
15,-12.688817961697062
16,-1.0510612289522215
17,-12.290458459295678
18,0.2409451485610073
2,1, 1, 1, 0, 3, 0.00,15.00,Tuesday
7,-11.549999999999999
8,0.0
9,0.0
10,0.0
11,0.0
12,0.0
13,0.0
14,-0.2556200081216295
15,-12.564863061654889
16,-1.071806535133021
17,-12.166047937960343
18,0.20270731709832152
2,1, 1, 1, 0, 3,15.00,30.00,Tuesday
7,-11.399999999999999
8,0.0
9,0.0
10,0.0
11,0.0
12,0.0
13,0.0
14,-0.2842487048581796
15,-12.442358387631212
16,-1.091916163794906
17,-12.035677312537019
18,0.16730373431686128
2,1, 1, 1, 0, 3,30.00,45.00,Tuesday
7,-11.25
8,0.0
9,0.0
10,0.0
11,0.0
12,0.0
13,0.0
14,-0.3128831597660097
15,-12.321519509188276
16,-1.1097486756266904
17,-11.905515703774427
18,0.1331601507861742
2,1, 1, 1, 0, 3,45.00,60.00,Tuesday
7,-11.1
8,0.0
9,0.0
10,0.0
11,0.0
12,0.0
13,0.0
14,-0.3409262206845898
15,-12.202337010316962
16,-1.1271952894209108
17,-11.776156827325736
18,0.09983341017401078
2,1, 1, 1, 0, 4, 0.00,15.00,Tuesday
7,-11.1
8,0.0
9,0.0
10,0.0
11,0.0
12,0.0
13,0.0
14,-0.3720541728776099
15,-12.17069394924786
16,-1.1570210449121988
17,-11.75956836577376
18,0.06690849695844961
2,1, 1, 1, 0, 4,15.00,30.00,Tuesday
7,-11.1
8,0.0
9,0.0
10,0.0
11,0.0
12,0.0
13,0.0
14,-0.40282926312445507
15,-12.14026867848373
16,-1.1876745867531327
17,-11.752047932472238
18,0.03417865291656003
2,1, 1, 1, 0, 4,30.00,45.00,Tuesday
7,-11.1
8,0.0
9,0.0
10,0.0
11,0.0
12,0.0
13,0.0
14,-0.43352324160393909
15,-12.111522856683559
16,-1.2159858461497493
17,-11.741962894260155
18,0.0015529605931531362
2,1, 1, 1, 0, 4,45.00,60.00,Tuesday
7,-11.1
8,0.0
9,0.0
10,0.0
11,0.0
12,0.0
13,0.0
14,-0.4641829852559929
15,-12.084326209260217
16,-1.2445539032648867
17,-11.731744026752097
18,-0.030985168555466116
2,1, 1, 1, 0, 5, 0.00,15.00,Tuesday
7,-10.975
8,0.0
9,0.0
10,0.0
11,0.0
12,0.0
13,0.0
14,-0.4894920709546046
15,-11.9619087237762
16,-1.2599341695315616
17,-11.619197702298493
18,-0.06280215853475
2,1, 1, 1, 0, 5,15.00,30.00,Tuesday
7,-10.85
8,0.0
9,0.0
10,0.0
11,0.0
12,0.0
13,0.0
14,-0.514664033018489
15,-11.839602442631323
16,-1.275999279663779
17,-11.504843211757248
18,-0.09351064911338129
2,1, 1, 1, 0, 5,30.00,45.00,Tuesday
7,-10.725
8,0.0
9,0.0
10,0.0
11,0.0
12,0.0
13,0.0
14,-0.5391195795555362
15,-11.717284066884995
16,-1.2916106234727068
17,-11.39033812516584
18,-0.12318416478333105
2,1, 1, 1, 0, 5,45.00,60.00,Tuesday
7,-10.6
8,0.0
9,0.0
10,0.0
11,0.0
12,0.0
13,0.0
14,-0.5629248886733808
15,-11.594976110229672
16,-1.3065609759581776
17,-11.275784847894045
18,-0.1520511480854259
2,1, 1, 1, 0, 6, 0.00,15.00,Tuesday
7,-10.6
8,0.0
9,0.0
10,0.0
11,0.0
12,0.0
13,0.0
14,-0.5939009027570137
15,-11.595639017175005
16,-1.3359663753647056
17,-11.273290778140336
18,-0.1813278365626666
2,1, 1, 1, 0, 6,15.00,30.00,Tuesday
7,-10.6
8,0.0
9,0.0
10,0.0
11,0.0
12,0.0
13,0.0
14,-0.6243918447112644
15,-11.596207133257419
16,-1.3649924537129437
17,-11.274224499610228
18,-0.21171649197561577
2,1, 1, 1, 0, 6,30.00,45.00,Tuesday
7,-10.6
8,0.0
9,0.0
10,0.0
11,0.0
12,0.0
13,0.0
14,-0.6553195150006999
15,-11.596810333649457
16,-1.3939389681740977
17,-11.276057866832332
18,-0.2430937657508322
2,1, 1, 1, 0, 6,45.00,60.00,Tuesday
7,-10.6
8,0.0
9,0.0
10,0.0
11,0.0
12,0.0
13,0.0
14,-0.6865814825517762
15,-11.597415632579392
16,-1.423259482428989
17,-11.278169657782428
18,-0.275064904761975
2,1, 1, 1, 0, 7, 0.00,15.00,Tuesday
7,-10.6
8,0.0
9,0.0
10,0.0
11,0.0
12,0.0
13,0.0
14,-0.7156071471197884
15,-11.571361127071564
16,-1.450697479321093
17,-11.270533614491569
18,-0.3069002373112601
2,1, 1, 1, 0, 7,15.00,30.00,Tuesday
7,-10.6
8,0.0
9,0.0
10,0.0
11,0.0
12,0.0
13,0.0
14,-0.7447753184785451
15,-11.54665340532746
16,-1.4775182594784156
17,-11.260765366808585
18,-0.338209465907184
2,1, 1, 1, 0, 7,30.00,45.00,Tuesday
7,-10.6
8,0.0
9,0.0
10,0.0
11,0.0
12,0.0
13,0.0
14,-0.7737045298257215
15,-11.523197426345942
16,-1.50444854552768
17,-11.250772683828757
18,-0.3690137414881655
2,1, 1, 1, 0, 7,45.00,60.00,Tuesday
7,-10.6
8,0.0
9,0.0
10,0.0
11,0.0
12,0.0
13,0.0
14,-0.8023654732185952
15,-11.500917198449369
16,-1.5311605199350425
17,-11.240965030093549
18,-0.39945247355227089
2,1, 1, 1, 0, 8, 0.00,15.00,Tuesday
7,-10.45
8,0.0
9,0.0
10,0.0
11,0.0
12,0.0
13,0.0
14,-0.832162110070848
15,-11.453459692526831
16,-1.5530225705088015
17,-11.201263883426748
18,-0.43019921337461899
2,1, 1, 1, 0, 8,15.00,30.00,Tuesday
7,-10.3
8,43.92919895502562
9,1.0
10,22.819555959623899
11,1.0
12,22.819555959623899
13,43.92919895502562
14,-0.7651850433415869
15,-9.780979145376423
16,-1.1552824997401104
17,-10.864591512149503
18,-0.44878052847041496
2,1, 1, 1, 0, 8,30.00,45.00,Tuesday
7,-10.15
8,217.30754917639187
9,1.0
10,109.75755355442667
11,1.0
12,109.75755355442667
13,217.30754917639187
14,-0.4331169068847475
15,-3.425708657505901
16,0.5426455645347232
17,-9.640992171282847
18,-0.421777239871043
2,1, 1, 1, 0, 8,45.00,60.00,Tuesday
7,-10.0
8,399.4699535945363
9,1.0
10,195.8764694434918
11,1.0
12,195.8764694434918
13,399.4699535945363
14,-0.014812772352734157
15,3.080222610801109
16,2.1180719747637797
17,-8.398536113651517
18,-0.33988827365800286
2,1, 1, 1, 0, 9, 0.00,15.00,Tuesday
7,-9.725
8,585.1489314874541
9,1.0
10,278.97248314719988
11,1.0
12,278.97248314719988
13,585.1489314874541
14,0.27750752816978549
15,8.249811926990616
16,3.5731254847893298
17,-7.307585104150519
18,-0.2088339422823639
2,1, 1, 1, 0, 9,15.00,30.00,Tuesday
7,-9.45
8,784.787199245388
9,1.0
10,364.91995730569456
11,1.0
12,364.91995730569456
13,784.787199245388
14,0.6315833750512326
15,13.332701890191805
16,5.032318298297014
17,-6.228532602979612
18,-0.04108525695737181
2,1, 1, 1, 0, 9,30.00,45.00,Tuesday
7,-9.175
8,921.7412871041541
9,1.0
10,420.35879993239237
11,1.0
12,420.35879993239237
13,921.7412871041541
14,0.8582217605786802
15,16.09218100786582
16,6.02093095131147
17,-5.568263891614436
18,0.14519552654130456
2,1, 1, 1, 0, 9,45.00,60.00,Tuesday
7,-8.9
8,1065.0474005418728
9,1.0
10,478.00138373643099
11,1.0
12,478.00138373643099
13,1065.0474005418728
14,1.127011863092693
15,19.08798888731106
16,7.007676387211063
17,-4.878527009696995
18,0.3459026880897991
2,1, 1, 1, 0,10, 0.00,15.00,Tuesday
7,-8.350000000000002
8,1212.3134782022194
9,1.0
10,536.9185644770597
11,1.0
12,536.9185644770597
13,1212.3134782022194
14,1.3347048121489414
15,20.20939546122302
16,8.027845312478974
17,-4.0541716139193799
18,0.5592380752864018
2,1, 1, 1, 0,10,15.00,30.00,Tuesday
7,-7.800000000000001
8,1365.083720287943
9,1.0
10,598.0969199229219
11,1.0
12,598.0969199229219
13,1365.083720287943
14,1.564078420070414
15,21.465311885675143
16,9.073044141183573
17,-3.256540452208924
18,0.7814350806180007
2,1, 1, 1, 0,10,30.00,45.00,Tuesday
7,-7.25
8,1468.1999493442264
9,1.0
10,637.6133352894237
11,1.0
12,637.6133352894237
13,1468.1999493442264
14,1.7268572968408767
15,21.527604134709628
16,9.809858882265303
17,-2.6887413734647795
18,1.0002761796806319
2,1, 1, 1, 0,10,45.00,60.00,Tuesday
7,-6.7
8,1569.705828175432
9,1.0
10,676.6412284283772
11,1.0
12,676.6412284283772
13,1569.705828175432
14,1.9030602285966088
15,21.689857768904479
16,10.51683082885279
17,-2.125595643336851
18,1.2093460561095156
2,1, 1, 1, 0,11, 0.00,15.00,Tuesday
7,-6.275
8,1669.2149873773784
9,1.0
10,715.0112779846514
11,1.0
12,715.0112779846514
13,1669.2149873773784
14,2.157799470619709
15,23.786970125017949
16,11.221581714447496
17,-1.3964643163066626
18,1.4122908780725137
2,1, 1, 1, 0,11,15.00,30.00,Tuesday
7,-5.85
8,1766.190944948854
9,1.0
10,752.5077794605232
11,1.0
12,752.5077794605232
13,1766.190944948854
14,2.392824194970756
15,25.72146098056291
16,11.91431434814183
17,-0.6792048933244814
18,1.6133370499552238
2,1, 1, 1, 0,11,30.00,45.00,Tuesday
7,-5.425
8,1740.4832380327117
9,1.0
10,742.5988714321785
11,1.0
12,742.5988714321785
13,1740.4832380327117
14,2.5164846609900657
15,25.572987118490638
16,11.954097667244355
17,-0.37682646289147217
18,1.7992387648243938
2,1, 1, 1, 0,11,45.00,60.00,Tuesday
7,-5.0
8,1702.0518597121073
9,1.0
10,727.8169025450712
11,1.0
12,727.8169025450712
13,1702.0518597121073
14,2.635353945284025
15,25.343083053589134
16,11.900747367251654
17,-0.10605956653955673
18,1.9612116715445854
2,1, 1, 1, 0,12, 0.00,15.00,Tuesday
7,-4.575
8,1635.6982778457269
9,1.0
10,700.3759009170325
11,1.0
12,700.3759009170325
13,1635.6982778457269
14,2.710421954584774
15,24.599894777251444
16,11.66832106017307
17,0.10575332683043826
18,2.0953724270140627
2,1, 1, 1, 0,12,15.00,30.00,Tuesday
7,-4.15
8,1584.1822507707826
9,1.0
10,681.6705029034473
11,1.0
12,681.6705029034473
13,1584.1822507707826
14,2.80166060199623
15,24.268878610924835
16,11.535715346630696
17,0.3892543689187278
18,2.2078332196433414
2,1, 1, 1, 0,12,30.00,45.00,Tuesday
7,-3.7249999999999998
8,1386.7884648429923
9,1.0
10,602.01865277251
11,1.0
12,602.01865277251
13,1386.7884648429923
14,2.70835161891166
15,21.24019113650574
16,10.562074813803747
17,0.18616369503718034
18,2.284548002514882
2,1, 1, 1, 0,12,45.00,60.00,Tuesday
7,-3.3
8,1130.2896420139664
9,1.0
10,493.55004396206007
11,1.0
12,493.55004396206007
13,1130.2896420139664
14,2.529988913807562
15,17.06098341554138
16,9.10485639030992
17,-0.2901364264403128
18,2.3108646344211305
2,1, 1, 1, 0,13, 0.00,15.00,Tuesday
7,-3.0249999999999996
8,926.9697700398867
9,1.0
10,412.335026418112
11,1.0
12,412.335026418112
13,926.9697700398867
14,2.4158727951333138
15,14.215565297959389
16,7.957013452847832
17,-0.6096373908272312
18,2.2910096873416014
2,1, 1, 1, 0,13,15.00,30.00,Tuesday
7,-2.75
8,673.6692877186736
9,1.0
10,305.94037763660148
11,1.0
12,305.94037763660148
13,673.6692877186736
14,2.1855246378597115
15,10.04094965375646
16,6.4055220499620308
17,-1.1595900319154567
18,2.230411703680085
2,1, 1, 1, 0,13,30.00,45.00,Tuesday
7,-2.475
8,612.4821658219637
9,1.0
10,281.0763483922329
11,1.0
12,281.0763483922329
13,612.4821658219637
14,2.1604097209286396
15,9.528787532763
16,6.01227844300638
17,-1.0300149552056155
18,2.163201045708375
2,1, 1, 1, 0,13,45.00,60.00,Tuesday
7,-2.2
8,552.552520277972
9,1.0
10,256.7721209415886
11,1.0
12,256.7721209415886
13,552.552520277972
14,2.127542344537789
15,8.918719979044008
16,5.662265825757345
17,-0.8787190531822944
18,2.10978798022728
2,1, 1, 1, 0,14, 0.00,15.00,Tuesday
7,-1.9250000000000003
8,449.8411357962977
9,1.0
10,210.73276284570657
11,1.0
12,210.73276284570657
13,449.8411357962977
14,2.0352078426086348
15,7.3702226456879329
16,4.963708691105694
17,-0.9671410589968446
18,2.0649053045726886
2,1, 1, 1, 0,14,15.00,30.00,Tuesday
7,-1.6500000000000002
8,396.7537665575463
9,1.0
10,189.38488290342594
11,1.0
12,189.38488290342594
13,396.7537665575463
14,2.0158372759882678
15,6.965276324022822
16,4.628710958396596
17,-0.8538904289792413
18,2.0277190584014237
2,1, 1, 1, 0,14,30.00,45.00,Tuesday
7,-1.375
8,379.3266897359249
9,1.0
10,179.3940297802914
11,1.0
12,179.3940297802914
13,379.3266897359249
14,2.019349791910486
15,7.084656813372907
16,4.494757938851194
17,-0.6289288257768249
18,1.9994195763676564
2,1, 1, 1, 0,14,45.00,60.00,Tuesday
7,-1.1
8,361.3465167603399
9,1.0
10,169.43349014176136
11,1.0
12,169.43349014176136
13,361.3465167603399
14,2.023554196636075
15,7.1814963532975268
16,4.360742417525273
17,-0.40451198307061989
18,1.9788415192205773
2,1, 1, 1, 0,15, 0.00,15.00,Tuesday
7,-1.1
8,379.75098608822659
9,1.0
10,178.15692317953907
11,1.0
12,178.15692317953907
13,379.75098608822659
14,2.067260773069804
15,7.995537807160567
16,4.5001462129739029
17,-0.29214932348662617
18,1.9679622337800904
2,1, 1, 1, 0,15,15.00,30.00,Tuesday
7,-1.1
8,356.65544888641286
9,1.0
10,166.40516310952945
11,1.0
12,166.40516310952945
13,356.65544888641286
14,2.0372129419665194
15,7.631128887270776
16,4.319490314022119
17,-0.3812005107578216
18,1.9602920266536297
2,1, 1, 1, 0,15,30.00,45.00,Tuesday
7,-1.1
8,299.30897077907687
9,1.0
10,140.8967369711617
11,1.0
12,140.8967369711617
13,299.30897077907687
14,1.9578402518702234
15,6.4225683930357448
16,3.892016452600444
17,-0.6532257231228869
18,1.9446713020406359
2,1, 1, 1, 0,15,45.00,60.00,Tuesday
7,-1.1
8,245.01101588106585
9,1.0
10,116.57355796743004
11,1.0
12,116.57355796743004
13,245.01101588106585
14,1.8695434951272426
15,5.208422041109265
16,3.4625663205630987
17,-0.9305715372243526
18,1.915836095827932
2,1, 1, 1, 0,16, 0.00,15.00,Tuesday
7,-1.1
8,193.3619366811613
9,1.0
10,93.14939272689483
11,1.0
12,93.14939272689483
13,193.3619366811613
14,1.7909256535358283
15,4.152129181949516
16,3.039078169198774
17,-1.1465104745328745
18,1.8749416379942548
2,1, 1, 1, 0,16,15.00,30.00,Tuesday
7,-1.1
8,119.36636342751545
9,1.0
10,57.94047897402063
11,1.0
12,57.94047897402063
13,119.36636342751545
14,1.6441261519565734
15,2.0202160929225956
16,2.3837197516976404
17,-1.555807645728919
18,1.8190488484527972
2,1, 1, 1, 0,16,30.00,45.00,Tuesday
7,-1.1
8,91.9639739168048
9,1.0
10,45.38251793443488
11,1.0
12,45.38251793443488
13,91.9639739168048
14,1.5904761739786358
15,1.4007697278279903
16,2.097906036493555
17,-1.683743448105929
18,1.7558013541768603
2,1, 1, 1, 0,16,45.00,60.00,Tuesday
7,-1.1
8,63.83988587375654
9,1.0
10,32.02625108222755
11,1.0
12,32.02625108222755
13,63.83988587375654
14,1.5073815391405332
15,0.5266320162295776
16,1.8001607285631849
17,-1.8460089908667215
18,1.6911160298042727
2,1, 1, 1, 0,17, 0.00,15.00,Tuesday
7,-1.1
8,34.880124245395318
9,1.0
10,17.762198626050539
11,1.0
12,17.762198626050539
13,34.880124245395318
14,1.3965820868664752
15,-0.7395494963643372
16,1.4561165757655772
17,-2.142916885036186
18,1.6230920748058436
2,1, 1, 1, 0,17,15.00,30.00,Tuesday
7,-1.1
8,0.0
9,0.0
10,0.0
11,0.0
12,0.0
13,0.0
14,1.240190211233884
15,-2.5829513702664519
16,1.0563911624403773
17,-2.4326967341843899
18,1.5416122204970453
2,1, 1, 1, 0,17,30.00,45.00,Tuesday
7,-1.1
8,0.0
9,0.0
10,0.0
11,0.0
12,0.0
13,0.0
14,1.2013256579810999
15,-2.7251435740429095
16,0.968341537744891
17,-2.5255997428282628
18,1.4557507264498038
2,1, 1, 1, 0,17,45.00,60.00,Tuesday
7,-1.1
8,0.0
9,0.0
10,0.0
11,0.0
12,0.0
13,0.0
14,1.1453616617148928
15,-2.9279813001605867
16,0.9159576785179979
17,-2.6317396654452525
18,1.3798107166348564
2,1, 1, 1, 0,18, 0.00,15.00,Tuesday
7,-1.25
8,0.0
9,0.0
10,0.0
11,0.0
12,0.0
13,0.0
14,1.1005000978334312
15,-3.0742576909219738
16,0.8526102361352059
17,-2.784299204090189
18,1.3189092847536197
2,1, 1, 1, 0,18,15.00,30.00,Tuesday
7,-1.4
8,0.0
9,0.0
10,0.0
11,0.0
12,0.0
13,0.0
14,1.0608806208508388
15,-3.226605405092991
16,0.8066720299631243
17,-2.9251481184703609
18,1.2711554192722372
2,1, 1, 1, 0,18,30.00,45.00,Tuesday
7,-1.5499999999999999
8,0.0
9,0.0
10,0.0
11,0.0
12,0.0
13,0.0
14,1.0246909015588289
15,-3.3782983953500835
16,0.7606743251685089
17,-3.0701199401223677
18,1.2322949888940627
2,1, 1, 1, 0,18,45.00,60.00,Tuesday
7,-1.7
8,0.0
9,0.0
10,0.0
11,0.0
12,0.0
13,0.0
14,0.9913567192976951
15,-3.5300534056156884
16,0.7177074526473462
17,-3.214560067134812
18,1.1987102590995787
2,1, 1, 1, 0,19, 0.00,15.00,Tuesday
7,-1.825
8,0.0
9,0.0
10,0.0
11,0.0
12,0.0
13,0.0
14,0.9861937589422472
15,-3.364506285434596
16,0.6929944361887692
17,-3.1808252329548738
18,1.1717491729191485
2,1, 1, 1, 0,19,15.00,30.00,Tuesday
7,-1.9500000000000002
8,0.0
9,0.0
10,0.0
11,0.0
12,0.0
13,0.0
14,0.9819428964815244
15,-3.2824195215087714
16,0.6805887362968406
17,-3.179466830072897
18,1.1528893457804724
2,1, 1, 1, 0,19,30.00,45.00,Tuesday
7,-2.075
8,0.0
9,0.0
10,0.0
11,0.0
12,0.0
13,0.0
14,0.9722241046862151
15,-3.3520429986724395
16,0.6665826510163129
17,-3.2632102114472447
18,1.1404708207825297
2,1, 1, 1, 0,19,45.00,60.00,Tuesday
7,-2.2
8,0.0
9,0.0
10,0.0
11,0.0
12,0.0
13,0.0
14,0.9648391759481324
15,-3.3162985702462786
16,0.6566480608943834
17,-3.2780463758742828
18,1.1313627255838719
2,1, 1, 1, 0,20, 0.00,15.00,Tuesday
7,-1.9250000000000003
8,0.0
9,0.0
10,0.0
11,0.0
12,0.0
13,0.0
14,0.9735153805189719
15,-3.0116422711795196
16,0.6824205948892086
17,-3.0002382460193077
18,1.1247007318266809
2,1, 1, 1, 0,20,15.00,30.00,Tuesday
7,-1.6500000000000002
8,0.0
9,0.0
10,0.0
11,0.0
12,0.0
13,0.0
14,0.9826719294777203
15,-2.7103911960886855
16,0.7099073242470695
17,-2.7219487783452225
18,1.1204468653013567
2,1, 1, 1, 0,20,30.00,45.00,Tuesday
7,-1.375
8,0.0
9,0.0
10,0.0
11,0.0
12,0.0
13,0.0
14,0.9929865491696577
15,-2.4105813049321966
16,0.738561004357166
17,-2.4438310580417239
18,1.118341013878861
2,1, 1, 1, 0,20,45.00,60.00,Tuesday
7,-1.1
8,0.0
9,0.0
10,0.0
11,0.0
12,0.0
13,0.0
14,1.0051449875591967
15,-2.1121752542645066
16,0.7684501829726287
17,-2.165875783562342
18,1.1180350389249574
2,1, 1, 1, 0,21, 0.00,15.00,Tuesday
7,-1.25
8,0.0
9,0.0
10,0.0
11,0.0
12,0.0
13,0.0
14,0.9729912469534048
15,-2.4072354017091066
16,0.7418675353432604
17,-2.4058022436472585
18,1.1143420132903295
2,1, 1, 1, 0,21,15.00,30.00,Tuesday
7,-1.4
8,0.0
9,0.0
10,0.0
11,0.0
12,0.0
13,0.0
14,0.9385371204361435
15,-2.631134974186646
16,0.704097323763051
17,-2.586079496577213
18,1.1025268808965972
2,1, 1, 1, 0,21,30.00,45.00,Tuesday
7,-1.5499999999999999
8,0.0
9,0.0
10,0.0
11,0.0
12,0.0
13,0.0
14,0.8912832476757656
15,-2.99346405230848
16,0.6516127777796328
17,-2.8491094498376698
18,1.0805933829754094
2,1, 1, 1, 0,21,45.00,60.00,Tuesday
7,-1.7
8,0.0
9,0.0
10,0.0
11,0.0
12,0.0
13,0.0
14,0.8390295087664936
15,-3.4658426141572216
16,0.5866330693731356
17,-3.1502991790899275
18,1.049718412366375
2,1, 1, 1, 0,22, 0.00,15.00,Tuesday
7,-1.5499999999999999
8,0.0
9,0.0
10,0.0
11,0.0
12,0.0
13,0.0
14,0.8621017220417526
15,-2.953836352495494
16,0.5898715045420886
17,-2.8192440982004429
18,1.022911148777102
2,1, 1, 1, 0,22,15.00,30.00,Tuesday
7,-1.4
8,0.0
9,0.0
10,0.0
11,0.0
12,0.0
13,0.0
14,0.875499947450292
15,-2.607065907832159
16,0.618950383982849
17,-2.564059107568596
18,1.0079824471064348
2,1, 1, 1, 0,22,30.00,45.00,Tuesday
7,-1.25
8,0.0
9,0.0
10,0.0
11,0.0
12,0.0
13,0.0
14,0.8869859576269845
15,-2.379453462098092
16,0.6413810618144566
17,-2.3790842915532268
18,1.0036811354317544
2,1, 1, 1, 0,22,45.00,60.00,Tuesday
7,-1.1
8,0.0
9,0.0
10,0.0
11,0.0
12,0.0
13,0.0
14,0.9020408779376824
15,-2.083495640439315
16,0.6718160705584069
17,-2.138463247677123
18,1.0055259045590317
2,1, 1, 1, 0,23, 0.00,15.00,Tuesday
7,-1.25
8,0.0
9,0.0
10,0.0
11,0.0
12,0.0
13,0.0
14,0.8708794116428712
15,-2.3873620372259238
16,0.6395403800955819
17,-2.4550910186478065
18,1.0048752257629672
2,1, 1, 1, 0,23,15.00,30.00,Tuesday
7,-1.4
8,0.0
9,0.0
10,0.0
11,0.0
12,0.0
13,0.0
14,0.8394231100019343
15,-2.691911902208934
16,0.5880285268787588
17,-2.77227445138044
18,0.9962274916405163
2,1, 1, 1, 0,23,30.00,45.00,Tuesday
7,-1.5499999999999999
8,0.0
9,0.0
10,0.0
11,0.0
12,0.0
13,0.0
14,0.8052830938324118
15,-2.9969168221877644
16,0.5349797186961496
17,-3.089261004254581
18,0.9792787193903596
2,1, 1, 1, 0,23,45.00,60.00,Tuesday
7,-1.7
8,0.0
9,0.0
10,0.0
11,0.0
12,0.0
13,0.0
14,0.767979440512601
15,-3.302290434072299
16,0.4790286083555202
17,-3.406238584386415
18,0.9559841392457633
2,1, 1, 1, 0,24, 0.00,15.00,Tuesday
7,-1.7
8,0.0
9,0.0
10,0.0
11,0.0
12,0.0
13,0.0
14,0.7475183253892773
15,-3.3558278134062697
16,0.44895237563554249
17,-3.4631459211967128
18,0.930851086150768
2,1, 1, 1, 0,24,15.00,30.00,Tuesday
7,-1.7
8,0.0
9,0.0
10,0.0
11,0.0
12,0.0
13,0.0
14,0.7250574334897523
15,-3.4101892171684047
16,0.42404752640015888
17,-3.5239163591027706
18,0.9068568296420831
2,1, 1, 1, 0,24,30.00,45.00,Tuesday
7,-1.7
8,0.0
9,0.0
10,0.0
11,0.0
12,0.0
13,0.0
14,0.7029326252666884
15,-3.46447110106681
16,0.39859136917993967
17,-3.5848973283079887
18,0.8845560807397395
2,1, 1, 1, 0,24,45.00,60.00,Tuesday
7,-1.7
8,0.0
9,0.0
10,0.0
11,0.0
12,0.0
13,0.0
14,0.6812466996737979
15,-3.5187475452434016
16,0.37354681523777347
17,-3.6457962625970596
18,0.863437838113662
End of Data
 Number of Records Written=        1152
