Program Version,EnergyPlus, Version 9.5.0-de239b2e5f, YMD=2023.02.16 18:16
1,5,Environment Title[],Latitude[deg],Longitude[deg],Time Zone[],Elevation[m]
2,8,Day of Simulation[],Month[],Day of Month[],DST Indicator[1=yes 0=no],Hour[],StartMinute[],EndMinute[],DayType
3,5,Cumulative Day of Simulation[],Month[],Day of Month[],DST Indicator[1=yes 0=no],DayType  ! When Daily Report Variables Requested
4,2,Cumulative Days of Simulation[],Month[]  ! When Monthly Report Variables Requested
5,1,Cumulative Days of Simulation[] ! When Run Period Report Variables Requested
6,1,Calendar Year of Simulation[] ! When Annual Report Variables Requested
7,1,Environment,Site Outdoor Air Drybulb Temperature [C] !TimeStep
8,1,ZONE ONE,Zone Windows Total Transmitted Solar Radiation Rate [W] !TimeStep
9,1,ZN001:WALL001,Surface Outside Face Sunlit Fraction [] !TimeStep
10,1,ZN001:WALL001,Surface Outside Face Incident Solar Radiation Rate per Area [W/m2] !TimeStep
11,1,ZN001:WALL001:WIN001,Surface Outside Face Sunlit Fraction [] !TimeStep
12,1,ZN001:WALL001:WIN001,Surface Outside Face Incident Solar Radiation Rate per Area [W/m2] !TimeStep
13,1,ZN001:WALL001:WIN001,Surface Window Transmitted Solar Radiation Rate [W] !TimeStep
14,1,ZN001:WALL001,Surface Inside Face Temperature [C] !TimeStep
15,1,ZN001:WALL001,Surface Outside Face Temperature [C] !TimeStep
16,1,ZN001:WALL001:WIN001,Surface Inside Face Temperature [C] !TimeStep
17,1,ZN001:WALL001:WIN001,Surface Outside Face Temperature [C] !TimeStep
18,1,ZONE ONE,Zone Mean Air Temperature [C] !TimeStep
End of Data Dictionary
1,RUN PERIOD 1,  41.98, -87.92,  -6.00, 201.00
2,1, 1, 1, 0, 1, 0.00,15.00,Tuesday
7,-4.324999999999999
8,0.0
9,0.0
10,0.0
11,0.0
12,0.0
13,0.0
14,3.634086196333124
15,-5.937700880471189
16,2.9397553421241584
17,-5.680531347740953
18,4.051918689922684
2,1, 1, 1, 0, 1,15.00,30.00,Tuesday
7,-6.949999999999999
8,0.0
9,0.0
10,0.0
11,0.0
12,0.0
13,0.0
14,3.4639321760282919
15,-8.405345260975912
16,2.599213432694853
17,-7.976986509978474
18,3.972498377387463
2,1, 1, 1, 0, 1,30.00,45.00,Tuesday
7,-9.575
8,0.0
9,0.0
10,0.0
11,0.0
12,0.0
13,0.0
14,3.2765838218660479
15,-10.880964304829789
16,2.255188875111969
17,-10.280957394955749
18,3.864553915282493
2,1, 1, 1, 0, 1,45.00,60.00,Tuesday
7,-12.2
8,0.0
9,0.0
10,0.0
11,0.0
12,0.0
13,0.0
14,3.075434332534059
15,-13.363151461789873
16,1.8984849963785564
17,-12.603679230766148
18,3.736160544278368
2,1, 1, 1, 0, 2, 0.00,15.00,Tuesday
7,-12.075
8,0.0
9,0.0
10,0.0
11,0.0
12,0.0
13,0.0
14,3.023156254721578
15,-13.164268862820628
16,1.8004500965427042
17,-12.460915148716993
18,3.618852660965572
2,1, 1, 1, 0, 2,15.00,30.00,Tuesday
7,-11.95
8,0.0
9,0.0
10,0.0
11,0.0
12,0.0
13,0.0
14,2.9562569478666655
15,-12.98692567563641
16,1.7535255744074335
17,-12.277748050986702
18,3.5286128109298735
2,1, 1, 1, 0, 2,30.00,45.00,Tuesday
7,-11.825
8,0.0
9,0.0
10,0.0
11,0.0
12,0.0
13,0.0
14,2.904185881653905
15,-12.808486895957604
16,1.7112094510914063
17,-12.103531408118215
18,3.461896328245527
2,1, 1, 1, 0, 2,45.00,60.00,Tuesday
7,-11.7
8,0.0
9,0.0
10,0.0
11,0.0
12,0.0
13,0.0
14,2.8620885954571326
15,-12.630115304091229
16,1.6807784789673406
17,-11.92840176438176
18,3.409587902828821
2,1, 1, 1, 0, 3, 0.00,15.00,Tuesday
7,-11.549999999999999
8,0.0
9,0.0
10,0.0
11,0.0
12,0.0
13,0.0
14,2.8210275925359067
15,-12.504741177978437
16,1.6547699167743986
17,-11.799734795760856
18,3.3636995353288094
2,1, 1, 1, 0, 3,15.00,30.00,Tuesday
7,-11.399999999999999
8,0.0
9,0.0
10,0.0
11,0.0
12,0.0
13,0.0
14,2.783030736501685
15,-12.38076078565455
16,1.6291272669959085
17,-11.66481845176179
18,3.320049232008658
2,1, 1, 1, 0, 3,30.00,45.00,Tuesday
7,-11.25
8,0.0
9,0.0
10,0.0
11,0.0
12,0.0
13,0.0
14,2.7458431451038156
15,-12.258339264014066
16,1.6051946454551854
17,-11.529924951655687
18,3.2773155079246036
2,1, 1, 1, 0, 3,45.00,60.00,Tuesday
7,-11.1
8,0.0
9,0.0
10,0.0
11,0.0
12,0.0
13,0.0
14,2.7090616695660625
15,-12.13753829641199
16,1.581832160099509
17,-11.39564370556593
18,3.2352810969206939
2,1, 1, 1, 0, 4, 0.00,15.00,Tuesday
7,-11.1
8,0.0
9,0.0
10,0.0
11,0.0
12,0.0
13,0.0
14,2.6690151529925165
15,-12.107911325512175
16,1.543098579161665
17,-11.386538292867158
18,3.1935516583413787
2,1, 1, 1, 0, 4,15.00,30.00,Tuesday
7,-11.1
8,0.0
9,0.0
10,0.0
11,0.0
12,0.0
13,0.0
14,2.629371029356136
15,-12.079419415810593
16,1.50340056618478
17,-11.386536399487057
18,3.1519405308006576
2,1, 1, 1, 0, 4,30.00,45.00,Tuesday
7,-11.1
8,0.0
9,0.0
10,0.0
11,0.0
12,0.0
13,0.0
14,2.5897992493988886
15,-12.052514126815014
16,1.4663891208963378
17,-11.384418618681253
18,3.1103775490900276
2,1, 1, 1, 0, 4,45.00,60.00,Tuesday
7,-11.1
8,0.0
9,0.0
10,0.0
11,0.0
12,0.0
13,0.0
14,2.55025996092439
15,-12.027067320234336
16,1.4292017753800793
17,-11.382072330849156
18,3.0688747980138517
2,1, 1, 1, 0, 5, 0.00,15.00,Tuesday
7,-10.975
8,0.0
9,0.0
10,0.0
11,0.0
12,0.0
13,0.0
14,2.5161005759411747
15,-11.904869661146675
16,1.4072608647868493
17,-11.27409167137921
18,3.0281379849766769
2,1, 1, 1, 0, 5,15.00,30.00,Tuesday
7,-10.85
8,0.0
9,0.0
10,0.0
11,0.0
12,0.0
13,0.0
14,2.482001755413607
15,-11.782764535313559
16,1.384203422591895
17,-11.162309858569757
18,2.9885792224376339
2,1, 1, 1, 0, 5,30.00,45.00,Tuesday
7,-10.725
8,0.0
9,0.0
10,0.0
11,0.0
12,0.0
13,0.0
14,2.448696774953155
15,-11.660642287886042
16,1.3615764999556178
17,-11.05021337473545
18,2.950104435035115
2,1, 1, 1, 0, 5,45.00,60.00,Tuesday
7,-10.6
8,0.0
9,0.0
10,0.0
11,0.0
12,0.0
13,0.0
14,2.4160814848345906
15,-11.538530710452282
16,1.3396592285562293
17,-10.938039167178772
18,2.9124632854467236
2,1, 1, 1, 0, 6, 0.00,15.00,Tuesday
7,-10.6
8,0.0
9,0.0
10,0.0
11,0.0
12,0.0
13,0.0
14,2.3764431586604028
15,-11.53932807849482
16,1.302326763880842
17,-10.936560709782839
18,2.874387173213226
2,1, 1, 1, 0, 6,15.00,30.00,Tuesday
7,-10.6
8,0.0
9,0.0
10,0.0
11,0.0
12,0.0
13,0.0
14,2.3374563043451208
15,-11.540053279407053
16,1.265487735103875
17,-10.93846744188727
18,2.8351778893791916
2,1, 1, 1, 0, 6,30.00,45.00,Tuesday
7,-10.6
8,0.0
9,0.0
10,0.0
11,0.0
12,0.0
13,0.0
14,2.2979886890793557
15,-11.540819368822226
16,1.2287897579627157
17,-10.941277899534726
18,2.7949999994779679
2,1, 1, 1, 0, 6,45.00,60.00,Tuesday
7,-10.6
8,0.0
9,0.0
10,0.0
11,0.0
12,0.0
13,0.0
14,2.258238394110645
15,-11.541585310113702
16,1.1939070140988407
17,-10.942600184364608
18,2.7542412462488605
2,1, 1, 1, 0, 7, 0.00,15.00,Tuesday
7,-10.6
8,0.0
9,0.0
10,0.0
11,0.0
12,0.0
13,0.0
14,2.2205412343000208
15,-11.517154459344495
16,1.155423559394535
17,-10.94212989118131
18,2.713699833154256
2,1, 1, 1, 0, 7,15.00,30.00,Tuesday
7,-10.6
8,0.0
9,0.0
10,0.0
11,0.0
12,0.0
13,0.0
14,2.182752897357233
15,-11.493986776481054
16,1.1204079685228408
17,-10.939190067108712
18,2.6737316977651988
2,1, 1, 1, 0, 7,30.00,45.00,Tuesday
7,-10.6
8,0.0
9,0.0
10,0.0
11,0.0
12,0.0
13,0.0
14,2.145254634633128
15,-11.471994550024688
16,1.0852168012704056
17,-10.935931668202557
18,2.6342841798863816
2,1, 1, 1, 0, 7,45.00,60.00,Tuesday
7,-10.6
8,0.0
9,0.0
10,0.0
11,0.0
12,0.0
13,0.0
14,2.1080506648019905
15,-11.451109078550545
16,1.0503014351339744
17,-10.93264497853147
18,2.5952069476913128
2,1, 1, 1, 0, 8, 0.00,15.00,Tuesday
7,-10.45
8,0.0
9,0.0
10,0.0
11,0.0
12,0.0
13,0.0
14,2.0698783961719116
15,-11.402551072844336
16,1.0219080684156552
17,-10.891739024750109
18,2.555834366623849
2,1, 1, 1, 0, 8,15.00,30.00,Tuesday
7,-10.3
8,92.15750704739708
9,1.0
10,22.819555959623899
11,1.0
12,22.819555959623899
13,92.15750704739708
14,2.138361315910177
15,-9.729541595177486
16,1.392656961921034
17,-10.551548816984223
18,2.5313741721724738
2,1, 1, 1, 0, 8,30.00,45.00,Tuesday
7,-10.15
8,454.0668273181285
9,1.0
10,109.75755355442667
11,1.0
12,109.75755355442667
13,454.0668273181285
14,2.4969375950078116
15,-3.365785608179533
16,3.040974354793775
17,-9.320309771516122
18,2.5623887625119119
2,1, 1, 1, 0, 8,45.00,60.00,Tuesday
7,-10.0
8,829.8784025660395
9,1.0
10,195.8764694434918
11,1.0
12,195.8764694434918
13,829.8784025660395
14,2.9335446218242575
15,3.115649918223029
16,4.626749453510342
17,-8.094281072200943
18,2.658384020494357
2,1, 1, 1, 0, 9, 0.00,15.00,Tuesday
7,-9.725
8,1208.431253707413
9,1.0
10,278.97248314719988
11,1.0
12,278.97248314719988
13,1208.431253707413
14,3.3079947800764675
15,8.303298852450944
16,6.081586042562435
17,-7.021295822675199
18,2.8082664227097888
2,1, 1, 1, 0, 9,15.00,30.00,Tuesday
7,-9.45
8,1611.27847082868
9,1.0
10,364.91995730569456
11,1.0
12,364.91995730569456
13,1611.27847082868
14,3.7075377807718095
15,13.379321669989843
16,7.541437347887495
17,-5.961514616394197
18,2.997794598900119
2,1, 1, 1, 0, 9,30.00,45.00,Tuesday
7,-9.175
8,1882.5474509696963
9,1.0
10,420.35879993239237
11,1.0
12,420.35879993239237
13,1882.5474509696963
14,3.9664201265867109
15,16.13796356090135
16,8.535832740863839
17,-5.316039636148389
18,3.208926112766843
2,1, 1, 1, 0, 9,45.00,60.00,Tuesday
7,-8.9
8,2165.2536956705005
9,1.0
10,478.00138373643099
11,1.0
12,478.00138373643099
13,2165.2536956705005
14,4.282025044607258
15,19.132874097988073
16,9.515617073528347
17,-4.643606205105812
18,3.4324546980860397
2,1, 1, 1, 0,10, 0.00,15.00,Tuesday
7,-8.350000000000002
8,2454.840672138349
9,1.0
10,536.9185644770597
11,1.0
12,536.9185644770597
13,2454.840672138349
14,4.5377801391246479
15,20.25100925431276
16,10.534118367503652
17,-3.8506585540536095
18,3.674172424013611
2,1, 1, 1, 0,10,15.00,30.00,Tuesday
7,-7.800000000000001
8,2754.837686584413
9,1.0
10,598.0969199229219
11,1.0
12,598.0969199229219
13,2754.837686584413
14,4.820537507208709
15,21.504638990371246
16,11.577341246406605
17,-3.0810444172815325
18,3.9324276966250899
2,1, 1, 1, 0,10,30.00,45.00,Tuesday
7,-7.25
8,2954.460675234528
9,1.0
10,637.6133352894237
11,1.0
12,637.6133352894237
13,2954.460675234528
14,5.033543347546542
15,21.56479592882328
16,12.32490965222587
17,-2.54791367517538
18,4.192776078674329
2,1, 1, 1, 0,10,45.00,60.00,Tuesday
7,-6.7
8,3151.0542115929945
9,1.0
10,676.6412284283772
11,1.0
12,676.6412284283772
13,3151.0542115929945
14,5.26407848324441
15,21.725335594471919
16,13.040653593040077
17,-1.9926729830192472
18,4.446013551838916
2,1, 1, 1, 0,11, 0.00,15.00,Tuesday
7,-6.275
8,3343.9250631385687
9,1.0
10,715.0112779846514
11,1.0
12,715.0112779846514
13,3343.9250631385687
14,5.570389459495965
15,23.822896944857616
16,13.76037740138986
17,-1.2762453086546657
18,4.695199044553886
2,1, 1, 1, 0,11,15.00,30.00,Tuesday
7,-5.85
8,3532.070082927922
9,1.0
10,752.5077794605232
11,1.0
12,752.5077794605232
13,3532.070082927922
14,5.8632214750433528
15,25.75770934907749
16,14.469903545392242
17,-0.5711369860301829
18,4.945092850266668
2,1, 1, 1, 0,11,30.00,45.00,Tuesday
7,-5.425
8,3479.1857131981189
9,1.0
10,742.5988714321785
11,1.0
12,742.5988714321785
13,3479.1857131981189
14,6.028699229735641
15,25.609364280563644
16,14.558857891017226
17,-0.2687760223352029
18,5.180110386263296
2,1, 1, 1, 0,11,45.00,60.00,Tuesday
7,-5.0
8,3401.966428615978
9,1.0
10,727.8169025450712
11,1.0
12,727.8169025450712
13,3401.966428615978
14,6.189590758677213
15,25.379990545255738
16,14.553999536025345
17,0.0036499272110290805
18,5.389158633056684
2,1, 1, 1, 0,12, 0.00,15.00,Tuesday
7,-4.575
8,3268.9162799877196
9,1.0
10,700.3759009170325
11,1.0
12,700.3759009170325
13,3268.9162799877196
14,6.298147288047051
15,24.637217875358496
16,14.376116398434079
17,0.21907947900149339
18,5.566662014027348
2,1, 1, 1, 0,12,15.00,30.00,Tuesday
7,-4.15
8,3167.996389959925
9,1.0
10,681.6705029034473
11,1.0
12,681.6705029034473
13,3167.996389959925
14,6.426691216145792
15,24.30664808574747
16,14.292861858006518
17,0.5070488824738959
18,5.719829081955459
2,1, 1, 1, 0,12,30.00,45.00,Tuesday
7,-3.7249999999999998
8,2777.3496836530587
9,1.0
10,602.01865277251
11,1.0
12,602.01865277251
13,2777.3496836530587
14,6.337948235616261
15,21.278121971980086
16,13.402517849536594
17,0.3183440788501457
18,5.8301998874988298
2,1, 1, 1, 0,12,45.00,60.00,Tuesday
7,-3.3
8,2266.039030991335
9,1.0
10,493.55004396206007
11,1.0
12,493.55004396206007
13,2266.039030991335
14,6.148105496356974
15,17.0994143415009
16,12.022750237699427
17,-0.13928550789546535
18,5.879323058640647
2,1, 1, 1, 0,13, 0.00,15.00,Tuesday
7,-3.0249999999999996
8,1864.918535661873
9,1.0
10,412.335026418112
11,1.0
12,412.335026418112
13,1864.918535661873
14,6.012332479561
15,14.254747806193944
16,10.931316205801977
17,-0.4405564294438591
18,5.879391505653983
2,1, 1, 1, 0,13,15.00,30.00,Tuesday
7,-2.75
8,1360.7676135935772
9,1.0
10,305.94037763660148
11,1.0
12,305.94037763660148
13,1360.7676135935772
14,5.743458831598361
15,10.080063420576892
16,9.43918323499338
17,-0.9709637746177577
18,5.83282279886621
2,1, 1, 1, 0,13,30.00,45.00,Tuesday
7,-2.475
8,1239.845359812998
9,1.0
10,281.0763483922329
11,1.0
12,281.0763483922329
13,1239.845359812998
14,5.7231033251523579
15,9.569861117286873
16,9.05313518975288
17,-0.8359928667231316
18,5.772303397246514
2,1, 1, 1, 0,13,45.00,60.00,Tuesday
7,-2.2
8,1121.425395556538
9,1.0
10,256.7721209415886
11,1.0
12,256.7721209415886
13,1121.425395556538
14,5.686097677230447
15,8.962137366427104
16,8.730832060480055
17,-0.6786009740569625
18,5.721671393347709
2,1, 1, 1, 0,14, 0.00,15.00,Tuesday
7,-1.9250000000000003
8,914.5926123773469
9,1.0
10,210.73276284570657
11,1.0
12,210.73276284570657
13,914.5926123773469
14,5.570865219527242
15,7.413247352198479
16,8.060194689006608
17,-0.7580879755523142
18,5.676039513293308
2,1, 1, 1, 0,14,15.00,30.00,Tuesday
7,-1.6500000000000002
8,809.6775858076765
9,1.0
10,189.38488290342594
11,1.0
12,189.38488290342594
13,809.6775858076765
14,5.549011434288924
15,7.0102949807284899
16,7.732447759829483
17,-0.6348747355674504
18,5.635753403792376
2,1, 1, 1, 0,14,30.00,45.00,Tuesday
7,-1.375
8,773.1146972475121
9,1.0
10,179.3940297802914
11,1.0
12,179.3940297802914
13,773.1146972475121
14,5.544056412344412
15,7.1305052119167329
16,7.60408812489618
17,-0.40529457681077477
18,5.603431397092419
2,1, 1, 1, 0,14,45.00,60.00,Tuesday
7,-1.1
8,735.7893474842847
9,1.0
10,169.43349014176136
11,1.0
12,169.43349014176136
13,735.7893474842847
14,5.53820459385561
15,7.228813959215108
16,7.472893239831706
17,-0.17602355397207249
18,5.578411536075523
2,1, 1, 1, 0,15, 0.00,15.00,Tuesday
7,-1.1
8,773.8909461974802
9,1.0
10,178.15692317953907
11,1.0
12,178.15692317953907
13,773.8909461974802
14,5.585285295194744
15,8.044960443710549
16,7.606408083283782
17,-0.05820805910582294
18,5.563929251706246
2,1, 1, 1, 0,15,15.00,30.00,Tuesday
7,-1.1
8,726.941996004965
9,1.0
10,166.40516310952945
11,1.0
12,166.40516310952945
13,726.941996004965
14,5.549131504463722
15,7.681499361551696
16,7.433427369181743
17,-0.13860214022395213
18,5.552483802215963
2,1, 1, 1, 0,15,30.00,45.00,Tuesday
7,-1.1
8,611.5649513491846
9,1.0
10,140.8967369711617
11,1.0
12,140.8967369711617
13,611.5649513491846
14,5.447845150190371
15,6.4691068213750999
16,7.011000185521425
17,-0.397842922374366
18,5.53173755719149
2,1, 1, 1, 0,15,45.00,60.00,Tuesday
7,-1.1
8,502.0061046110028
9,1.0
10,116.57355796743004
11,1.0
12,116.57355796743004
13,502.0061046110028
14,5.358110811945463
15,5.266955120697225
16,6.581553994767262
17,-0.6621473105466293
18,5.494951037506959
2,1, 1, 1, 0,16, 0.00,15.00,Tuesday
7,-1.1
8,397.3564596057699
9,1.0
10,93.14939272689483
11,1.0
12,93.14939272689483
13,397.3564596057699
14,5.268000974891519
15,4.2122844926165829
16,6.156851601504229
17,-0.8586206722279144
18,5.443027615385247
2,1, 1, 1, 0,16,15.00,30.00,Tuesday
7,-1.1
8,246.0241224001257
9,1.0
10,57.94047897402063
11,1.0
12,57.94047897402063
13,246.0241224001257
14,5.100620674913364
15,2.085611418918705
16,5.484095855906389
17,-1.244354334055629
18,5.372005951198412
2,1, 1, 1, 0,16,30.00,45.00,Tuesday
7,-1.1
8,190.18037094464638
9,1.0
10,45.38251793443488
11,1.0
12,45.38251793443488
13,190.18037094464638
14,5.034256113077587
15,1.4710766998561867
16,5.1750334536176869
17,-1.3613939170134018
18,5.291590394145972
2,1, 1, 1, 0,16,45.00,60.00,Tuesday
7,-1.1
8,132.41076891910806
9,1.0
10,32.02625108222755
11,1.0
12,32.02625108222755
13,132.41076891910806
14,4.936417684129987
15,0.6040148446221639
16,4.889205022200599
17,-1.5012589636983763
18,5.2088143325847249
2,1, 1, 1, 0,17, 0.00,15.00,Tuesday
7,-1.1
8,72.49471069167912
9,1.0
10,17.762198626050539
11,1.0
12,17.762198626050539
13,72.49471069167912
14,4.8112644720377679
15,-0.6527028468471458
16,4.5648807685539058
17,-1.7785362637567915
18,5.121354043760835
2,1, 1, 1, 0,17,15.00,30.00,Tuesday
7,-1.1
8,0.0
9,0.0
10,0.0
11,0.0
12,0.0
13,0.0
14,4.638335214655484
15,-2.4923009056192608
16,4.173384269686721
17,-2.0747279606199529
18,5.022203090624149
2,1, 1, 1, 0,17,30.00,45.00,Tuesday
7,-1.1
8,0.0
9,0.0
10,0.0
11,0.0
12,0.0
13,0.0
14,4.587267124190317
15,-2.6308410419327199
16,4.071072711945931
17,-2.1491174752286499
18,4.9258545268892999
2,1, 1, 1, 0,17,45.00,60.00,Tuesday
7,-1.1
8,0.0
9,0.0
10,0.0
11,0.0
12,0.0
13,0.0
14,4.5227197717748999
15,-2.8260706725328146
16,4.009784602315108
17,-2.2371308198863746
18,4.845010057218878
2,1, 1, 1, 0,18, 0.00,15.00,Tuesday
7,-1.25
8,0.0
9,0.0
10,0.0
11,0.0
12,0.0
13,0.0
14,4.469935641576734
15,-2.973313209740951
16,3.9378286604446659
17,-2.390357977096926
18,4.781221895025927
2,1, 1, 1, 0,18,15.00,30.00,Tuesday
7,-1.4
8,0.0
9,0.0
10,0.0
11,0.0
12,0.0
13,0.0
14,4.4223645970662519
15,-3.1256258398461038
16,3.8795120431707348
17,-2.5334985285866198
18,4.730059098805286
2,1, 1, 1, 0,18,30.00,45.00,Tuesday
7,-1.5499999999999999
8,0.0
9,0.0
10,0.0
11,0.0
12,0.0
13,0.0
14,4.3793704080773729
15,-3.2773925639944876
16,3.8302325673612929
17,-2.6729826111635477
18,4.68642258760816
2,1, 1, 1, 0,18,45.00,60.00,Tuesday
7,-1.7
8,0.0
9,0.0
10,0.0
11,0.0
12,0.0
13,0.0
14,4.338623982427612
15,-3.4293201813766696
16,3.775473992328102
17,-2.8205641644557319
18,4.6467966307587729
2,1, 1, 1, 0,19, 0.00,15.00,Tuesday
7,-1.825
8,0.0
9,0.0
10,0.0
11,0.0
12,0.0
13,0.0
14,4.324290179184353
15,-3.2752691061199399
16,3.742313121463269
17,-2.8167483267187665
18,4.613030220860251
2,1, 1, 1, 0,19,15.00,30.00,Tuesday
7,-1.9500000000000002
8,0.0
9,0.0
10,0.0
11,0.0
12,0.0
13,0.0
14,4.310421542273473
15,-3.2033184704443977
16,3.7231984704661729
17,-2.8369453437705944
18,4.586847450569299
2,1, 1, 1, 0,19,30.00,45.00,Tuesday
7,-2.075
8,0.0
9,0.0
10,0.0
11,0.0
12,0.0
13,0.0
14,4.289912967861658
15,-3.2756875428219738
16,3.6976401782030736
17,-2.92836670092845
18,4.5664056744875449
2,1, 1, 1, 0,19,45.00,60.00,Tuesday
7,-2.2
8,0.0
9,0.0
10,0.0
11,0.0
12,0.0
13,0.0
14,4.273701919798284
15,-3.2489063443464318
16,3.6778255068430214
17,-2.9709026365155184
18,4.548618735238583
2,1, 1, 1, 0,20, 0.00,15.00,Tuesday
7,-1.9250000000000003
8,0.0
9,0.0
10,0.0
11,0.0
12,0.0
13,0.0
14,4.273128762488184
15,-2.946576877170233
16,3.694237025791267
17,-2.702404164511563
18,4.533101752899737
2,1, 1, 1, 0,20,15.00,30.00,Tuesday
7,-1.6500000000000002
8,0.0
9,0.0
10,0.0
11,0.0
12,0.0
13,0.0
14,4.272345350807148
15,-2.6473876470071855
16,3.7144176576920815
17,-2.4332737612247685
18,4.520040204280299
2,1, 1, 1, 0,20,30.00,45.00,Tuesday
7,-1.375
8,0.0
9,0.0
10,0.0
11,0.0
12,0.0
13,0.0
14,4.2729379610705309
15,-2.349516781992689
16,3.7355337731485749
17,-2.1639926444519235
18,4.509173322364975
2,1, 1, 1, 0,20,45.00,60.00,Tuesday
7,-1.1
8,0.0
9,0.0
10,0.0
11,0.0
12,0.0
13,0.0
14,4.274775522716508
15,-2.052963101882346
16,3.7579919770469134
17,-1.8945305732929683
18,4.500043486369672
2,1, 1, 1, 0,21, 0.00,15.00,Tuesday
7,-1.25
8,0.0
9,0.0
10,0.0
11,0.0
12,0.0
13,0.0
14,4.234104278662441
15,-2.338528688966629
16,3.724711324086229
17,-2.103390032431662
18,4.486689187170575
2,1, 1, 1, 0,21,15.00,30.00,Tuesday
7,-1.4
8,0.0
9,0.0
10,0.0
11,0.0
12,0.0
13,0.0
14,4.194427793752968
15,-2.5574229539155999
16,3.680055386502886
17,-2.264339899248057
18,4.464573187762961
2,1, 1, 1, 0,21,30.00,45.00,Tuesday
7,-1.5499999999999999
8,0.0
9,0.0
10,0.0
11,0.0
12,0.0
13,0.0
14,4.141021292233474
15,-2.9075933681385406
16,3.623134593159648
17,-2.4972061243245209
18,4.432383254225114
2,1, 1, 1, 0,21,45.00,60.00,Tuesday
7,-1.7
8,0.0
9,0.0
10,0.0
11,0.0
12,0.0
13,0.0
14,4.08225441425914
15,-3.3661753592702134
16,3.5534414618356324
17,-2.7605369000850716
18,4.391792877341863
2,1, 1, 1, 0,22, 0.00,15.00,Tuesday
7,-1.5499999999999999
8,0.0
9,0.0
10,0.0
11,0.0
12,0.0
13,0.0
14,4.094110532802465
15,-2.8706768906715305
16,3.5466010592281238
17,-2.476415968276683
18,4.356364233765532
2,1, 1, 1, 0,22,15.00,30.00,Tuesday
7,-1.4
8,0.0
9,0.0
10,0.0
11,0.0
12,0.0
13,0.0
14,4.09670697520934
15,-2.535072404180229
16,3.564252786394718
17,-2.2541532942906317
18,4.333787860087911
2,1, 1, 1, 0,22,30.00,45.00,Tuesday
7,-1.25
8,0.0
9,0.0
10,0.0
11,0.0
12,0.0
13,0.0
14,4.09735009769674
15,-2.3125286662524728
16,3.577727622847192
17,-2.090812804188431
18,4.322083003323928
2,1, 1, 1, 0,22,45.00,60.00,Tuesday
7,-1.1
8,0.0
9,0.0
10,0.0
11,0.0
12,0.0
13,0.0
14,4.101876550122848
15,-2.025637445378159
16,3.596955136370525
17,-1.873295307307103
18,4.316121709532316
2,1, 1, 1, 0,23, 0.00,15.00,Tuesday
7,-1.25
8,0.0
9,0.0
10,0.0
11,0.0
12,0.0
13,0.0
14,4.061045379145859
15,-2.3290677604030067
16,3.5543031027726785
17,-2.186780856018572
18,4.306153791718449
2,1, 1, 1, 0,23,15.00,30.00,Tuesday
7,-1.4
8,0.0
9,0.0
10,0.0
11,0.0
12,0.0
13,0.0
14,4.02427321918847
15,-2.6335526230365935
16,3.4929130275600075
17,-2.502648391661296
18,4.28708615585227
2,1, 1, 1, 0,23,30.00,45.00,Tuesday
7,-1.5499999999999999
8,0.0
9,0.0
10,0.0
11,0.0
12,0.0
13,0.0
14,3.9814408392875766
15,-2.9387270791828454
16,3.430943165623887
17,-2.8181969234217378
18,4.259423040509477
2,1, 1, 1, 0,23,45.00,60.00,Tuesday
7,-1.7
8,0.0
9,0.0
10,0.0
11,0.0
12,0.0
13,0.0
14,3.9361517394498279
15,-3.244158676880029
16,3.364599581736229
17,-3.133852844902833
18,4.225695286572728
2,1, 1, 1, 0,24, 0.00,15.00,Tuesday
7,-1.7
8,0.0
9,0.0
10,0.0
11,0.0
12,0.0
13,0.0
14,3.9077193862272128
15,-3.297999290907648
16,3.3258710678289846
17,-3.192165847690262
18,4.190954683149897
2,1, 1, 1, 0,24,15.00,30.00,Tuesday
7,-1.7
8,0.0
9,0.0
10,0.0
11,0.0
12,0.0
13,0.0
14,3.876258850436331
15,-3.3525541294354985
16,3.2925575472817174
17,-3.253506543417018
18,4.158081872617202
2,1, 1, 1, 0,24,30.00,45.00,Tuesday
7,-1.7
8,0.0
9,0.0
10,0.0
11,0.0
12,0.0
13,0.0
14,3.8455690789207499
15,-3.4069738933759137
16,3.2585424382391467
17,-3.3150630129825915
18,4.127254894029511
2,1, 1, 1, 0,24,45.00,60.00,Tuesday
7,-1.7
8,0.0
9,0.0
10,0.0
11,0.0
12,0.0
13,0.0
14,3.8154963968692408
15,-3.4613960098665874
16,3.2252177305668967
17,-3.376500202759132
18,4.097689238372987
End of Data
 Number of Records Written=        1152
