Program Version,EnergyPlus, Version 9.5.0-de239b2e5f, YMD=2023.02.16 18:15
1,5,Environment Title[],Latitude[deg],Longitude[deg],Time Zone[],Elevation[m]
2,8,Day of Simulation[],Month[],Day of Month[],DST Indicator[1=yes 0=no],Hour[],StartMinute[],EndMinute[],DayType
3,5,Cumulative Day of Simulation[],Month[],Day of Month[],DST Indicator[1=yes 0=no],DayType  ! When Daily Report Variables Requested
4,2,Cumulative Days of Simulation[],Month[]  ! When Monthly Report Variables Requested
5,1,Cumulative Days of Simulation[] ! When Run Period Report Variables Requested
6,1,Calendar Year of Simulation[] ! When Annual Report Variables Requested
7,1,Environment,Site Outdoor Air Drybulb Temperature [C] !TimeStep
8,1,ZONE ONE,Zone Windows Total Transmitted Solar Radiation Rate [W] !TimeStep
9,1,ZN001:WALL001,Surface Outside Face Sunlit Fraction [] !TimeStep
10,1,ZN001:WALL001,Surface Outside Face Incident Solar Radiation Rate per Area [W/m2] !TimeStep
11,1,ZN001:WALL001:WIN001,Surface Outside Face Sunlit Fraction [] !TimeStep
12,1,ZN001:WALL001:WIN001,Surface Outside Face Incident Solar Radiation Rate per Area [W/m2] !TimeStep
13,1,ZN001:WALL001:WIN001,Surface Window Transmitted Solar Radiation Rate [W] !TimeStep
14,1,ZN001:WALL001,Surface Inside Face Temperature [C] !TimeStep
15,1,ZN001:WALL001,Surface Outside Face Temperature [C] !TimeStep
16,1,ZN001:WALL001:WIN001,Surface Inside Face Temperature [C] !TimeStep
17,1,ZN001:WALL001:WIN001,Surface Outside Face Temperature [C] !TimeStep
18,1,ZONE ONE,Zone Mean Air Temperature [C] !TimeStep
End of Data Dictionary
1,RUN PERIOD 1,  41.98, -87.92,  -6.00, 201.00
2,1, 1, 1, 0, 1, 0.00,15.00,Tuesday
7,-4.324999999999999
8,0.0
9,0.0
10,0.0
11,0.0
12,0.0
13,0.0
14,0.43975838759846089
15,-5.996086974487441
16,-0.0036214086142081216
17,-5.955345060048671
18,0.7650041439442122
2,1, 1, 1, 0, 1,15.00,30.00,Tuesday
7,-6.949999999999999
8,0.0
9,0.0
10,0.0
11,0.0
12,0.0
13,0.0
14,0.2733383941052688
15,-8.464039864660452
16,-0.3398360142975889
17,-8.259050410311034
18,0.6954584737063739
2,1, 1, 1, 0, 1,30.00,45.00,Tuesday
7,-9.575
8,0.0
9,0.0
10,0.0
11,0.0
12,0.0
13,0.0
14,0.0903034038870585
15,-10.94033203899128
16,-0.6767514872282163
17,-10.569955282826527
18,0.5965442733990509
2,1, 1, 1, 0, 1,45.00,60.00,Tuesday
7,-12.2
8,0.0
9,0.0
10,0.0
11,0.0
12,0.0
13,0.0
14,-0.10628502837860987
15,-13.423156160477565
16,-1.0256146967378755
17,-12.899794865619583
18,0.47592291409234185
2,1, 1, 1, 0, 2, 0.00,15.00,Tuesday
7,-12.075
8,0.0
9,0.0
10,0.0
11,0.0
12,0.0
13,0.0
14,-0.14920638792688055
15,-13.224757115355447
16,-1.1170759752030222
17,-12.755223853591702
18,0.36506394327864868
2,1, 1, 1, 0, 2,15.00,30.00,Tuesday
7,-11.95
8,0.0
9,0.0
10,0.0
11,0.0
12,0.0
13,0.0
14,-0.20769194896044025
15,-13.047240186062125
16,-1.156128216419006
17,-12.570653753687168
18,0.2806701051510859
2,1, 1, 1, 0, 2,30.00,45.00,Tuesday
7,-11.825
8,0.0
9,0.0
10,0.0
11,0.0
12,0.0
13,0.0
14,-0.2516807937181385
15,-12.868601560938205
16,-1.191167530152427
17,-12.395315728805656
18,0.22007337435597203
2,1, 1, 1, 0, 2,45.00,60.00,Tuesday
7,-11.7
8,0.0
9,0.0
10,0.0
11,0.0
12,0.0
13,0.0
14,-0.28563523881634686
15,-12.690015998866107
16,-1.214426134025814
17,-12.219102064094728
18,0.17459927326033115
2,1, 1, 1, 0, 3, 0.00,15.00,Tuesday
7,-11.549999999999999
8,0.0
9,0.0
10,0.0
11,0.0
12,0.0
13,0.0
14,-0.3186046511361667
15,-12.566093908307833
16,-1.233758335588277
17,-12.0945103062719
18,0.1362638122486974
2,1, 1, 1, 0, 3,15.00,30.00,Tuesday
7,-11.399999999999999
8,0.0
9,0.0
10,0.0
11,0.0
12,0.0
13,0.0
14,-0.3472999213357064
15,-12.44362367767818
16,-1.2524939135705609
17,-11.963901172214264
18,0.10079312038709135
2,1, 1, 1, 0, 3,30.00,45.00,Tuesday
7,-11.25
8,0.0
9,0.0
10,0.0
11,0.0
12,0.0
13,0.0
14,-0.37599267270329819
15,-12.32282137781462
16,-1.26896233883906
17,-11.833454759193842
18,0.06659838750098254
2,1, 1, 1, 0, 3,45.00,60.00,Tuesday
7,-11.1
8,0.0
9,0.0
10,0.0
11,0.0
12,0.0
13,0.0
14,-0.404086135319729
15,-12.203677044579529
16,-1.2850445985653778
17,-11.703799103891697
18,0.033231443851295439
2,1, 1, 1, 0, 4, 0.00,15.00,Tuesday
7,-11.1
8,0.0
9,0.0
10,0.0
11,0.0
12,0.0
13,0.0
14,-0.43527704659460167
15,-12.171997265673646
16,-1.314947304222244
17,-11.688613386920793
18,0.00025784600911190096
2,1, 1, 1, 0, 4,15.00,30.00,Tuesday
7,-11.1
8,0.0
9,0.0
10,0.0
11,0.0
12,0.0
13,0.0
14,-0.466110840840104
15,-12.14153715236628
16,-1.345093445076543
17,-11.682490330531892
18,-0.03253049243922103
2,1, 1, 1, 0, 4,30.00,45.00,Tuesday
7,-11.1
8,0.0
9,0.0
10,0.0
11,0.0
12,0.0
13,0.0
14,-0.49687283578900506
15,-12.112758009772274
16,-1.3733269298385267
17,-11.6739726306904
18,-0.06522258753225496
2,1, 1, 1, 0, 4,45.00,60.00,Tuesday
7,-11.1
8,0.0
9,0.0
10,0.0
11,0.0
12,0.0
13,0.0
14,-0.5276024695015034
15,-12.085529798005885
16,-1.4017632893872474
17,-11.665290855969943
18,-0.09783245816361785
2,1, 1, 1, 0, 5, 0.00,15.00,Tuesday
7,-10.975
8,0.0
9,0.0
10,0.0
11,0.0
12,0.0
13,0.0
14,-0.5529691338547118
15,-11.963112331867612
16,-1.4162448756617892
17,-11.554197890541105
18,-0.12971452699387976
2,1, 1, 1, 0, 5,15.00,30.00,Tuesday
7,-10.85
8,0.0
9,0.0
10,0.0
11,0.0
12,0.0
13,0.0
14,-0.5781912082628038
15,-11.840806337754215
16,-1.4312224245600192
17,-11.440829527193046
18,-0.16047459335841547
2,1, 1, 1, 0, 5,30.00,45.00,Tuesday
7,-10.725
8,0.0
9,0.0
10,0.0
11,0.0
12,0.0
13,0.0
14,-0.60268988137375
15,-11.718488014502004
16,-1.445742798229503
17,-11.32727200268971
18,-0.1901868301692767
2,1, 1, 1, 0, 5,45.00,60.00,Tuesday
7,-10.6
8,0.0
9,0.0
10,0.0
11,0.0
12,0.0
13,0.0
14,-0.626531490516026
15,-11.596179998976832
16,-1.4595976157311839
17,-11.213656717109643
18,-0.2190831379674396
2,1, 1, 1, 0, 6, 0.00,15.00,Tuesday
7,-10.6
8,0.0
9,0.0
10,0.0
11,0.0
12,0.0
13,0.0
14,-0.6575556596392338
15,-11.596844574129382
16,-1.4885704521165054
17,-11.211267356711915
18,-0.2483914748083599
2,1, 1, 1, 0, 6,15.00,30.00,Tuesday
7,-10.6
8,0.0
9,0.0
10,0.0
11,0.0
12,0.0
13,0.0
14,-0.6880994472199403
15,-11.597413705743965
16,-1.5174526548926793
17,-11.212374608437415
18,-0.2788208958588533
2,1, 1, 1, 0, 6,30.00,45.00,Tuesday
7,-10.6
8,0.0
9,0.0
10,0.0
11,0.0
12,0.0
13,0.0
14,-0.7190819218029599
15,-11.59801809594745
16,-1.5462260811715397
17,-11.214388898690118
18,-0.31024779843431557
2,1, 1, 1, 0, 6,45.00,60.00,Tuesday
7,-10.6
8,0.0
9,0.0
10,0.0
11,0.0
12,0.0
13,0.0
14,-0.750401202910215
15,-11.598624613782463
16,-1.5753678863283654
17,-11.216691177445057
18,-0.34227396576622018
2,1, 1, 1, 0, 7, 0.00,15.00,Tuesday
7,-10.6
8,0.0
9,0.0
10,0.0
11,0.0
12,0.0
13,0.0
14,-0.7794819549289729
15,-11.572539423754235
16,-1.6026897636387503
17,-11.21015549017909
18,-0.3741672140960998
2,1, 1, 1, 0, 7,15.00,30.00,Tuesday
7,-10.6
8,0.0
9,0.0
10,0.0
11,0.0
12,0.0
13,0.0
14,-0.8087056016322038
15,-11.547802703426278
16,-1.6293743619149269
17,-11.201654216386374
18,-0.40553552073208395
2,1, 1, 1, 0, 7,30.00,45.00,Tuesday
7,-10.6
8,0.0
9,0.0
10,0.0
11,0.0
12,0.0
13,0.0
14,-0.8376904676988214
15,-11.524319080400643
16,-1.6561550451428957
17,-11.192934817322794
18,-0.4363989445699023
2,1, 1, 1, 0, 7,45.00,60.00,Tuesday
7,-10.6
8,0.0
9,0.0
10,0.0
11,0.0
12,0.0
13,0.0
14,-0.8664068033012657
15,-11.502012485563258
16,-1.682720832446421
17,-11.184366260533011
18,-0.46689643790262316
2,1, 1, 1, 0, 8, 0.00,15.00,Tuesday
7,-10.45
8,0.0
9,0.0
10,0.0
11,0.0
12,0.0
13,0.0
14,-0.896261427765455
15,-11.45458330951346
16,-1.7043057726716029
17,-11.14464804711315
18,-0.49769908967362866
2,1, 1, 1, 0, 8,15.00,30.00,Tuesday
7,-10.3
8,43.92919895502562
9,1.0
10,22.819555959623899
11,1.0
12,22.819555959623899
13,43.92919895502562
14,-0.8292656104782805
15,-9.782104896675206
16,-1.307611672200892
17,-10.805598587001669
18,-0.5162944331856291
2,1, 1, 1, 0, 8,30.00,45.00,Tuesday
7,-10.15
8,217.30754917639187
9,1.0
10,109.75755355442667
11,1.0
12,109.75755355442667
13,217.30754917639187
14,-0.4967505631512035
15,-3.42697325441482
16,0.3946906219418338
17,-9.572287671149639
18,-0.4893293582715279
2,1, 1, 1, 0, 8,45.00,60.00,Tuesday
7,-10.0
8,399.4699535945363
9,1.0
10,195.8764694434918
11,1.0
12,195.8764694434918
13,399.4699535945363
14,-0.07375001958144244
15,3.08375463892627
16,1.9789290266228364
17,-8.32479255745966
18,-0.4076965347418914
2,1, 1, 1, 0, 9, 0.00,15.00,Tuesday
7,-9.725
8,585.1489314874541
9,1.0
10,278.97248314719988
11,1.0
12,278.97248314719988
13,585.1489314874541
14,0.21365879028987024
15,8.247944982094709
16,3.439268274706137
17,-7.230024353040108
18,-0.27694565389505218
2,1, 1, 1, 0, 9,15.00,30.00,Tuesday
7,-9.45
8,784.787199245388
9,1.0
10,364.91995730569456
11,1.0
12,364.91995730569456
13,784.787199245388
14,0.5678990690675649
15,13.33182130570772
16,4.902855615148383
17,-6.147096117119588
18,-0.10945293136958472
2,1, 1, 1, 0, 9,30.00,45.00,Tuesday
7,-9.175
8,921.7412871041541
9,1.0
10,420.35879993239237
11,1.0
12,420.35879993239237
13,921.7412871041541
14,0.7942313061158022
15,16.091224074178073
16,5.893119126313252
17,-5.484352452004714
18,0.07656675766463424
2,1, 1, 1, 0, 9,45.00,60.00,Tuesday
7,-8.9
8,1065.0474005418728
9,1.0
10,478.00138373643099
11,1.0
12,478.00138373643099
13,1065.0474005418728
14,1.0629968825492207
15,19.087070497538094
16,6.8817323432500079
17,-4.79215865509974
18,0.27667583377384516
2,1, 1, 1, 0,10, 0.00,15.00,Tuesday
7,-8.350000000000002
8,1212.3134782022194
9,1.0
10,536.9185644770597
11,1.0
12,536.9185644770597
13,1212.3134782022194
14,1.2704460458953897
15,20.20855364365707
16,7.903980779803874
17,-3.9709987298602984
18,0.48965217156219989
2,1, 1, 1, 0,10,15.00,30.00,Tuesday
7,-7.800000000000001
8,1365.083720287943
9,1.0
10,598.0969199229219
11,1.0
12,598.0969199229219
13,1365.083720287943
14,1.499712991557301
15,21.46453042627404
16,8.9511284616367
17,-3.1756557395245865
18,0.7117620318177536
2,1, 1, 1, 0,10,30.00,45.00,Tuesday
7,-7.25
8,1468.1999493442264
9,1.0
10,637.6133352894237
11,1.0
12,637.6133352894237
13,1468.1999493442264
14,1.6625367623413592
15,21.526881862912697
16,9.689017606918356
17,-2.6108452422644747
18,0.9306424905395321
2,1, 1, 1, 0,10,45.00,60.00,Tuesday
7,-6.7
8,1569.705828175432
9,1.0
10,676.6412284283772
11,1.0
12,676.6412284283772
13,1569.705828175432
14,1.8387062912070079
15,21.689181290141869
16,10.397336560105942
17,-2.0504211781551477
18,1.1397440187801316
2,1, 1, 1, 0,11, 0.00,15.00,Tuesday
7,-6.275
8,1669.2149873773784
9,1.0
10,715.0112779846514
11,1.0
12,715.0112779846514
13,1669.2149873773784
14,2.0931520560095926
15,23.786286450744407
16,11.104982008435286
17,-1.320381167923415
18,1.3427157080472716
2,1, 1, 1, 0,11,15.00,30.00,Tuesday
7,-5.85
8,1766.190944948854
9,1.0
10,752.5077794605232
11,1.0
12,752.5077794605232
13,1766.190944948854
14,2.32875611787702
15,25.72078248069855
16,11.800258156287157
17,-0.6022508743640742
18,1.543864687002786
2,1, 1, 1, 0,11,30.00,45.00,Tuesday
7,-5.425
8,1740.4832380327117
9,1.0
10,742.5988714321785
11,1.0
12,742.5988714321785
13,1740.4832380327117
14,2.4523181662870008
15,25.572322477132205
16,11.841807436749207
17,-0.30150353590192938
18,1.7298814196677717
2,1, 1, 1, 0,11,45.00,60.00,Tuesday
7,-5.0
8,1702.0518597121073
9,1.0
10,727.8169025450712
11,1.0
12,727.8169025450712
13,1702.0518597121073
14,2.5718093765765035
15,25.342418246775
16,11.789856087182045
17,-0.03272111568634273
18,1.8920694434066908
2,1, 1, 1, 0,12, 0.00,15.00,Tuesday
7,-4.575
8,1635.6982778457269
9,1.0
10,700.3759009170325
11,1.0
12,700.3759009170325
13,1635.6982778457269
14,2.6468634593993967
15,24.599237421476798
16,11.559432942829745
17,0.1762303658088058
18,2.026532547973387
2,1, 1, 1, 0,12,15.00,30.00,Tuesday
7,-4.15
8,1584.1822507707826
9,1.0
10,681.6705029034473
11,1.0
12,681.6705029034473
13,1584.1822507707826
14,2.7382158919300028
15,24.268220515751218
16,11.42881851021582
17,0.4572174548706016
18,2.1392709675375665
2,1, 1, 1, 0,12,30.00,45.00,Tuesday
7,-3.7249999999999998
8,1386.7884648429923
9,1.0
10,602.01865277251
11,1.0
12,602.01865277251
13,1386.7884648429923
14,2.6451017128366285
15,21.239541692022937
16,10.455484249233905
17,0.2481163271869491
18,2.216201796732091
2,1, 1, 1, 0,12,45.00,60.00,Tuesday
7,-3.3
8,1130.2896420139664
9,1.0
10,493.55004396206007
11,1.0
12,493.55004396206007
13,1130.2896420139664
14,2.467090480698633
15,17.060341230509399
16,8.998683899046796
17,-0.23564382103779736
18,2.2425938032795287
2,1, 1, 1, 0,13, 0.00,15.00,Tuesday
7,-3.0249999999999996
8,926.9697700398867
9,1.0
10,412.335026418112
11,1.0
12,412.335026418112
13,926.9697700398867
14,2.352747760262415
15,14.214927812889915
16,7.851933968249909
17,-0.5607923504246628
18,2.2230529097234545
2,1, 1, 1, 0,13,15.00,30.00,Tuesday
7,-2.75
8,673.6692877186736
9,1.0
10,305.94037763660148
11,1.0
12,305.94037763660148
13,673.6692877186736
14,2.122780255685718
15,10.040369250797653
16,6.300479521962188
17,-1.1181174566297614
18,2.1628737059007
2,1, 1, 1, 0,13,30.00,45.00,Tuesday
7,-2.475
8,612.4821658219637
9,1.0
10,281.0763483922329
11,1.0
12,281.0763483922329
13,612.4821658219637
14,2.0976151448587876
15,9.527967672554708
16,5.910320749991683
17,-0.9912618623669687
18,2.0960373028530885
2,1, 1, 1, 0,13,45.00,60.00,Tuesday
7,-2.2
8,552.552520277972
9,1.0
10,256.7721209415886
11,1.0
12,256.7721209415886
13,552.552520277972
14,2.0652056988674349
15,8.917550685394549
16,5.5629851196868
17,-0.8426855584527857
18,2.042886873371301
2,1, 1, 1, 0,14, 0.00,15.00,Tuesday
7,-1.9250000000000003
8,449.8411357962977
9,1.0
10,210.73276284570657
11,1.0
12,210.73276284570657
13,449.8411357962977
14,1.97351457771266
15,7.369879879453016
16,4.865879761085239
17,-0.9348572289055142
18,1.9982378309364133
2,1, 1, 1, 0,14,15.00,30.00,Tuesday
7,-1.6500000000000002
8,396.7537665575463
9,1.0
10,189.38488290342594
11,1.0
12,189.38488290342594
13,396.7537665575463
14,1.9535382453175883
15,6.964316952258218
16,4.533816956746364
17,-0.8233553153332309
18,1.9612738397437606
2,1, 1, 1, 0,14,30.00,45.00,Tuesday
7,-1.375
8,379.3266897359249
9,1.0
10,179.3940297802914
11,1.0
12,179.3940297802914
13,379.3266897359249
14,1.9575122031947943
15,7.083891422038091
16,4.402599053520817
17,-0.5996235715077773
18,1.9331584124789064
2,1, 1, 1, 0,14,45.00,60.00,Tuesday
7,-1.1
8,361.3465167603399
9,1.0
10,169.43349014176136
11,1.0
12,169.43349014176136
13,361.3465167603399
14,1.9617350496996882
15,7.180639974763205
16,4.271287529050028
17,-0.3765224938273377
18,1.9127491444829184
2,1, 1, 1, 0,15, 0.00,15.00,Tuesday
7,-1.1
8,379.75098608822659
9,1.0
10,178.15692317953907
11,1.0
12,178.15692317953907
13,379.75098608822659
14,2.0053532536229947
15,7.9945934154667859
16,4.4115565490142789
17,-0.26280798535782426
18,1.9020752782723032
2,1, 1, 1, 0,15,15.00,30.00,Tuesday
7,-1.1
8,356.65544888641286
9,1.0
10,166.40516310952945
11,1.0
12,166.40516310952945
13,356.65544888641286
14,1.9753751362767165
15,7.63025232831767
16,4.230436225073845
17,-0.35193771924843988
18,1.8946394672745375
2,1, 1, 1, 0,15,30.00,45.00,Tuesday
7,-1.1
8,299.30897077907687
9,1.0
10,140.8967369711617
11,1.0
12,140.8967369711617
13,299.30897077907687
14,1.8961780631203047
15,6.421702870687436
16,3.8025775608643359
17,-0.6247505139954797
18,1.8792566956084683
2,1, 1, 1, 0,15,45.00,60.00,Tuesday
7,-1.1
8,245.01101588106585
9,1.0
10,116.57355796743004
11,1.0
12,116.57355796743004
13,245.01101588106585
14,1.808575211902388
15,5.207911974939973
16,3.3725588857463437
17,-0.9029129959499187
18,1.850618546490253
2,1, 1, 1, 0,16, 0.00,15.00,Tuesday
7,-1.1
8,193.3619366811613
9,1.0
10,93.14939272689483
11,1.0
12,93.14939272689483
13,193.3619366811613
14,1.7289793503480422
15,4.1508456970329539
16,2.949130901894705
17,-1.1194101376598838
18,1.8099376604738449
2,1, 1, 1, 0,16,15.00,30.00,Tuesday
7,-1.1
8,119.36636342751545
9,1.0
10,57.94047897402063
11,1.0
12,57.94047897402063
13,119.36636342751545
14,1.5821453605322209
15,2.0189910869120268
16,2.2924018631734954
17,-1.5310929676362549
18,1.7542904346316933
2,1, 1, 1, 0,16,30.00,45.00,Tuesday
7,-1.1
8,91.9639739168048
9,1.0
10,45.38251793443488
11,1.0
12,45.38251793443488
13,91.9639739168048
14,1.5286513909766147
15,1.3995054018916154
16,2.0064990076450615
17,-1.6592630750049012
18,1.691291763814917
2,1, 1, 1, 0,16,45.00,60.00,Tuesday
7,-1.1
8,63.83988587375654
9,1.0
10,32.02625108222755
11,1.0
12,32.02625108222755
13,63.83988587375654
14,1.445637432894261
15,0.5252239613639299
16,1.7091863708595839
17,-1.8212050523512745
18,1.6268546585455513
2,1, 1, 1, 0,17, 0.00,15.00,Tuesday
7,-1.1
8,34.880124245395318
9,1.0
10,17.762198626050539
11,1.0
12,17.762198626050539
13,34.880124245395318
14,1.3348708122138236
15,-0.7411357064982139
16,1.364595624254605
17,-2.1186911297002668
18,1.559055700494826
2,1, 1, 1, 0,17,15.00,30.00,Tuesday
7,-1.1
8,0.0
9,0.0
10,0.0
11,0.0
12,0.0
13,0.0
14,1.178501388283703
15,-2.5846089039979045
16,0.9660175760873813
17,-2.410653138028181
18,1.477755261685091
2,1, 1, 1, 0,17,30.00,45.00,Tuesday
7,-1.1
8,0.0
9,0.0
10,0.0
11,0.0
12,0.0
13,0.0
14,1.1397566850934744
15,-2.7268528769448459
16,0.877515974221069
17,-2.502310471333317
18,1.3920673024415405
2,1, 1, 1, 0,17,45.00,60.00,Tuesday
7,-1.1
8,0.0
9,0.0
10,0.0
11,0.0
12,0.0
13,0.0
14,1.083910722292702
15,-2.9298285055113366
16,0.8248089962751806
17,-2.6068092273454228
18,1.316171024246293
2,1, 1, 1, 0,18, 0.00,15.00,Tuesday
7,-1.25
8,0.0
9,0.0
10,0.0
11,0.0
12,0.0
13,0.0
14,1.0391172558119204
15,-3.0760915746320389
16,0.7608730406278141
17,-2.758705544149848
18,1.2552328900417525
2,1, 1, 1, 0,18,15.00,30.00,Tuesday
7,-1.4
8,0.0
9,0.0
10,0.0
11,0.0
12,0.0
13,0.0
14,0.999523426042599
15,-3.2284435408854694
16,0.713765081094266
17,-2.898500970693931
18,1.2074200544317305
2,1, 1, 1, 0,18,30.00,45.00,Tuesday
7,-1.5499999999999999
8,0.0
9,0.0
10,0.0
11,0.0
12,0.0
13,0.0
14,0.9633480207460505
15,-3.3801383008321634
16,0.6668025127784176
17,-3.042585573179167
18,1.1685101561319733
2,1, 1, 1, 0,18,45.00,60.00,Tuesday
7,-1.7
8,0.0
9,0.0
10,0.0
11,0.0
12,0.0
13,0.0
14,0.930026487121511
15,-3.5318942899997696
16,0.6228836845468209
17,-3.186099810716655
18,1.1348932450469445
2,1, 1, 1, 0,19, 0.00,15.00,Tuesday
7,-1.825
8,0.0
9,0.0
10,0.0
11,0.0
12,0.0
13,0.0
14,0.9249392305224138
15,-3.3661399494873356
16,0.5986999692611335
17,-3.155136969353407
18,1.1079266589051218
2,1, 1, 1, 0,19,15.00,30.00,Tuesday
7,-1.9500000000000002
8,0.0
9,0.0
10,0.0
11,0.0
12,0.0
13,0.0
14,0.9207668117971061
15,-3.283871278162903
16,0.5862413363960286
17,-3.1553672725643766
18,1.0890811884279484
2,1, 1, 1, 0,19,30.00,45.00,Tuesday
7,-2.075
8,0.0
9,0.0
10,0.0
11,0.0
12,0.0
13,0.0
14,0.9111161459844556
15,-3.353447920355857
16,0.5713450622847631
17,-3.2390376515536447
18,1.076682670887981
2,1, 1, 1, 0,19,45.00,60.00,Tuesday
7,-2.2
8,0.0
9,0.0
10,0.0
11,0.0
12,0.0
13,0.0
14,0.9038069484962266
15,-3.3175399418838849
16,0.5612140635195146
17,-3.2553691426600155
18,1.0676028168670438
2,1, 1, 1, 0,20, 0.00,15.00,Tuesday
7,-1.9250000000000003
8,0.0
9,0.0
10,0.0
11,0.0
12,0.0
13,0.0
14,0.912539120815393
15,-3.012841763471961
16,0.5896070074043109
17,-2.9803474345434326
18,1.0609974903040383
2,1, 1, 1, 0,20,15.00,30.00,Tuesday
7,-1.6500000000000002
8,0.0
9,0.0
10,0.0
11,0.0
12,0.0
13,0.0
14,0.9218195205765521
15,-2.711549993993098
16,0.6195071276575845
17,-2.7040909288260766
18,1.0568358929301769
2,1, 1, 1, 0,20,30.00,45.00,Tuesday
7,-1.375
8,0.0
9,0.0
10,0.0
11,0.0
12,0.0
13,0.0
14,0.932280303242997
15,-2.411703550969351
16,0.6506142717684611
17,-2.427919463557373
18,1.0548550149793837
2,1, 1, 1, 0,20,45.00,60.00,Tuesday
7,-1.1
8,0.0
9,0.0
10,0.0
11,0.0
12,0.0
13,0.0
14,0.9446632354388366
15,-2.1132626375795846
16,0.6829844573292689
17,-2.1518271262571035
18,1.0547044893427682
2,1, 1, 1, 0,21, 0.00,15.00,Tuesday
7,-1.25
8,0.0
9,0.0
10,0.0
11,0.0
12,0.0
13,0.0
14,0.9125708607252622
15,-2.4085086082792337
16,0.6545590806169912
17,-2.388390081918601
18,1.0511663733684707
2,1, 1, 1, 0,21,15.00,30.00,Tuesday
7,-1.4
8,0.0
9,0.0
10,0.0
11,0.0
12,0.0
13,0.0
14,0.8781222348072264
15,-2.6325027468708259
16,0.6156713373426328
17,-2.566910822500631
18,1.0394841140366698
2,1, 1, 1, 0,21,30.00,45.00,Tuesday
7,-1.5499999999999999
8,0.0
9,0.0
10,0.0
11,0.0
12,0.0
13,0.0
14,0.8308597013950373
15,-2.9950610574383327
16,0.561552484172239
17,-2.8262237717335667
18,1.0176477048325619
2,1, 1, 1, 0,21,45.00,60.00,Tuesday
7,-1.7
8,0.0
9,0.0
10,0.0
11,0.0
12,0.0
13,0.0
14,0.778596592239321
15,-3.4676976156246477
16,0.49473842083671118
17,-3.1231384485356559
18,0.986829005572506
2,1, 1, 1, 0,22, 0.00,15.00,Tuesday
7,-1.5499999999999999
8,0.0
9,0.0
10,0.0
11,0.0
12,0.0
13,0.0
14,0.8018368387655062
15,-2.9553831023218555
16,0.5007324218919962
17,-2.7979333193009099
18,0.9600807822171462
2,1, 1, 1, 0,22,15.00,30.00,Tuesday
7,-1.4
8,0.0
9,0.0
10,0.0
11,0.0
12,0.0
13,0.0
14,0.8154008008085324
15,-2.608405970477758
16,0.5317844237027885
17,-2.5461035645325298
18,0.9452316805685856
2,1, 1, 1, 0,22,30.00,45.00,Tuesday
7,-1.25
8,0.0
9,0.0
10,0.0
11,0.0
12,0.0
13,0.0
14,0.8270617308717809
15,-2.3806993005057519
16,0.5557501812243118
17,-2.362936462571838
18,0.941030301058719
2,1, 1, 1, 0,22,45.00,60.00,Tuesday
7,-1.1
8,0.0
9,0.0
10,0.0
11,0.0
12,0.0
13,0.0
14,0.8422964195877852
15,-2.0845714578513809
16,0.5881877223553715
17,-2.125112767399912
18,0.9429966315343576
2,1, 1, 1, 0,23, 0.00,15.00,Tuesday
7,-1.25
8,0.0
9,0.0
10,0.0
11,0.0
12,0.0
13,0.0
14,0.8111765017671657
15,-2.3884544353930718
16,0.5531203825955799
17,-2.439534294145119
18,0.9424627720796316
2,1, 1, 1, 0,23,15.00,30.00,Tuesday
7,-1.4
8,0.0
9,0.0
10,0.0
11,0.0
12,0.0
13,0.0
14,0.7797042733788914
15,-2.69300771646774
16,0.49915909007648909
17,-2.755066447685522
18,0.9339020378400813
2,1, 1, 1, 0,23,30.00,45.00,Tuesday
7,-1.5499999999999999
8,0.0
9,0.0
10,0.0
11,0.0
12,0.0
13,0.0
14,0.7455585692445684
15,-2.998012739577847
16,0.44363364975583866
17,-3.070414712757781
18,0.9169995683439254
2,1, 1, 1, 0,23,45.00,60.00,Tuesday
7,-1.7
8,0.0
9,0.0
10,0.0
11,0.0
12,0.0
13,0.0
14,0.7082433863074613
15,-3.30338746604127
16,0.38522261026400886
17,-3.3857778394777826
18,0.8937131940693958
2,1, 1, 1, 0,24, 0.00,15.00,Tuesday
7,-1.7
8,0.0
9,0.0
10,0.0
11,0.0
12,0.0
13,0.0
14,0.6878182401421346
15,-3.3569210817914625
16,0.35478259805859127
17,-3.4427275699284225
18,0.8685777440139716
2,1, 1, 1, 0,24,15.00,30.00,Tuesday
7,-1.7
8,0.0
9,0.0
10,0.0
11,0.0
12,0.0
13,0.0
14,0.6653941646406739
15,-3.4112819442913975
16,0.3295522714972776
17,-3.503284514755933
18,0.8445880798486998
2,1, 1, 1, 0,24,30.00,45.00,Tuesday
7,-1.7
8,0.0
9,0.0
10,0.0
11,0.0
12,0.0
13,0.0
14,0.6433059335831864
15,-3.4655631771485528
16,0.3037704446475118
17,-3.564060337323326
18,0.8223033699415964
2,1, 1, 1, 0,24,45.00,60.00,Tuesday
7,-1.7
8,0.0
9,0.0
10,0.0
11,0.0
12,0.0
13,0.0
14,0.6216584509915804
15,-3.519838833070537
16,0.2784074986182077
17,-3.624750727548758
18,0.801210381962279
End of Data
 Number of Records Written=        1152
