Program Version,EnergyPlus, Version 9.5.0-de239b2e5f, YMD=2023.02.16 18:16
1,5,Environment Title[],Latitude[deg],Longitude[deg],Time Zone[],Elevation[m]
2,8,Day of Simulation[],Month[],Day of Month[],DST Indicator[1=yes 0=no],Hour[],StartMinute[],EndMinute[],DayType
3,5,Cumulative Day of Simulation[],Month[],Day of Month[],DST Indicator[1=yes 0=no],DayType  ! When Daily Report Variables Requested
4,2,Cumulative Days of Simulation[],Month[]  ! When Monthly Report Variables Requested
5,1,Cumulative Days of Simulation[] ! When Run Period Report Variables Requested
6,1,Calendar Year of Simulation[] ! When Annual Report Variables Requested
7,1,Environment,Site Outdoor Air Drybulb Temperature [C] !TimeStep
8,1,ZONE ONE,Zone Windows Total Transmitted Solar Radiation Rate [W] !TimeStep
9,1,ZN001:WALL001,Surface Outside Face Sunlit Fraction [] !TimeStep
10,1,ZN001:WALL001,Surface Outside Face Incident Solar Radiation Rate per Area [W/m2] !TimeStep
11,1,ZN001:WALL001:WIN001,Surface Outside Face Sunlit Fraction [] !TimeStep
12,1,ZN001:WALL001:WIN001,Surface Outside Face Incident Solar Radiation Rate per Area [W/m2] !TimeStep
13,1,ZN001:WALL001:WIN001,Surface Window Transmitted Solar Radiation Rate [W] !TimeStep
14,1,ZN001:WALL001,Surface Inside Face Temperature [C] !TimeStep
15,1,ZN001:WALL001,Surface Outside Face Temperature [C] !TimeStep
16,1,ZN001:WALL001:WIN001,Surface Inside Face Temperature [C] !TimeStep
17,1,ZN001:WALL001:WIN001,Surface Outside Face Temperature [C] !TimeStep
18,1,ZONE ONE,Zone Mean Air Temperature [C] !TimeStep
End of Data Dictionary
1,RUN PERIOD 1,  41.98, -87.92,  -6.00, 201.00
2,1, 1, 1, 0, 1, 0.00,15.00,Tuesday
7,-4.324999999999999
8,0.0
9,0.0
10,0.0
11,0.0
12,0.0
13,0.0
14,2.722051920152671
15,-5.954321553437914
16,2.27756400820806
17,-5.890474366952446
18,3.1158267020167904
2,1, 1, 1, 0, 1,15.00,30.00,Tuesday
7,-6.949999999999999
8,0.0
9,0.0
10,0.0
11,0.0
12,0.0
13,0.0
14,2.554199640784408
15,-8.422080255447215
16,1.980757206941803
17,-8.221757391329675
18,3.0408145646230069
2,1, 1, 1, 0, 1,30.00,45.00,Tuesday
7,-9.575
8,0.0
9,0.0
10,0.0
11,0.0
12,0.0
13,0.0
14,2.3697281421237887
15,-10.897851715007312
16,1.6812245937909439
17,-10.560535853751049
18,2.93764141204594
2,1, 1, 1, 0, 1,45.00,60.00,Tuesday
7,-12.2
8,0.0
9,0.0
10,0.0
11,0.0
12,0.0
13,0.0
14,2.1717827640984574
15,-13.380179131225603
16,1.3676304119827592
17,-12.90802114262442
18,2.8140377018577569
2,1, 1, 1, 0, 2, 0.00,15.00,Tuesday
7,-12.075
8,0.0
9,0.0
10,0.0
11,0.0
12,0.0
13,0.0
14,2.123529064802385
15,-13.181402087299464
16,1.2689269082320607
17,-12.768558148522857
18,2.7007703187312588
2,1, 1, 1, 0, 2,15.00,30.00,Tuesday
7,-11.95
8,0.0
9,0.0
10,0.0
11,0.0
12,0.0
13,0.0
14,2.060324312245041
15,-13.003986312457185
16,1.2217458029836053
17,-12.582149509380657
18,2.6137811346945796
2,1, 1, 1, 0, 2,30.00,45.00,Tuesday
7,-11.825
8,0.0
9,0.0
10,0.0
11,0.0
12,0.0
13,0.0
14,2.0115738569623264
15,-12.825480329156106
16,1.1800041463870912
17,-12.414148216077422
18,2.549928944222157
2,1, 1, 1, 0, 2,45.00,60.00,Tuesday
7,-11.7
8,0.0
9,0.0
10,0.0
11,0.0
12,0.0
13,0.0
14,1.972586623134616
15,-12.647037389563744
16,1.147083132394755
17,-12.225645122425647
18,2.500407897935509
2,1, 1, 1, 0, 3, 0.00,15.00,Tuesday
7,-11.549999999999999
8,0.0
9,0.0
10,0.0
11,0.0
12,0.0
13,0.0
14,1.9345447997820947
15,-12.522062765894683
16,1.1199382939085468
17,-12.09918894251723
18,2.4573753191236169
2,1, 1, 1, 0, 3,15.00,30.00,Tuesday
7,-11.399999999999999
8,0.0
9,0.0
10,0.0
11,0.0
12,0.0
13,0.0
14,1.8995822405876788
15,-12.398497234739843
16,1.0933437611451496
17,-11.966820889771612
18,2.4166686360191704
2,1, 1, 1, 0, 3,30.00,45.00,Tuesday
7,-11.25
8,0.0
9,0.0
10,0.0
11,0.0
12,0.0
13,0.0
14,1.8654520665128478
15,-12.276510441580046
16,1.0685283071842378
17,-11.834669233737032
18,2.3769322555615135
2,1, 1, 1, 0, 3,45.00,60.00,Tuesday
7,-11.1
8,0.0
9,0.0
10,0.0
11,0.0
12,0.0
13,0.0
14,1.8317337386841244
15,-12.156165718176452
16,1.0443155776438858
17,-11.703238899162216
18,2.3379144228056578
2,1, 1, 1, 0, 4, 0.00,15.00,Tuesday
7,-11.1
8,0.0
9,0.0
10,0.0
11,0.0
12,0.0
13,0.0
14,1.7948317564817802
15,-12.125946423548376
16,1.0087974445393684
17,-11.688136108797267
18,2.2992651746960486
2,1, 1, 1, 0, 4,15.00,30.00,Tuesday
7,-11.1
8,0.0
9,0.0
10,0.0
11,0.0
12,0.0
13,0.0
14,1.7583635709615023
15,-12.096885483000867
16,0.974034701371238
17,-11.678201201640718
18,2.2607633513275355
2,1, 1, 1, 0, 4,30.00,45.00,Tuesday
7,-11.1
8,0.0
9,0.0
10,0.0
11,0.0
12,0.0
13,0.0
14,1.7219322326181415
15,-12.069439045442462
16,0.9394791515020415
17,-11.668875276015172
18,2.2223476995462407
2,1, 1, 1, 0, 4,45.00,60.00,Tuesday
7,-11.1
8,0.0
9,0.0
10,0.0
11,0.0
12,0.0
13,0.0
14,1.6855480786114996
15,-12.043478021196096
16,0.9049859199282082
17,-11.659935552407092
18,2.1840231560209277
2,1, 1, 1, 0, 5, 0.00,15.00,Tuesday
7,-10.975
8,0.0
9,0.0
10,0.0
11,0.0
12,0.0
13,0.0
14,1.6554746124771156
15,-11.921206365947599
16,0.8810007612256641
17,-11.551462135300313
18,2.1465978075560376
2,1, 1, 1, 0, 5,15.00,30.00,Tuesday
7,-10.85
8,0.0
9,0.0
10,0.0
11,0.0
12,0.0
13,0.0
14,1.624530467055184
15,-11.799065104445889
16,0.8584904326888818
17,-11.436881470335664
18,2.1103849936383805
2,1, 1, 1, 0, 5,30.00,45.00,Tuesday
7,-10.725
8,0.0
9,0.0
10,0.0
11,0.0
12,0.0
13,0.0
14,1.5944477502059059
15,-11.676869969266429
16,0.8361295368094375
17,-11.321937330648439
18,2.075189402199303
2,1, 1, 1, 0, 5,45.00,60.00,Tuesday
7,-10.6
8,0.0
9,0.0
10,0.0
11,0.0
12,0.0
13,0.0
14,1.5650104184175627
15,-11.554690302237164
16,0.8144758808158485
17,-11.206930465693859
18,2.0407417707614265
2,1, 1, 1, 0, 6, 0.00,15.00,Tuesday
7,-10.6
8,0.0
9,0.0
10,0.0
11,0.0
12,0.0
13,0.0
14,1.5275109783652814
15,-11.555436601481138
16,0.778747851092362
17,-11.204814411184544
18,2.005701571106768
2,1, 1, 1, 0, 6,15.00,30.00,Tuesday
7,-10.6
8,0.0
9,0.0
10,0.0
11,0.0
12,0.0
13,0.0
14,1.491610716314779
15,-11.556072602750158
16,0.7438973100249768
17,-11.205980675448189
18,1.9694554795181268
2,1, 1, 1, 0, 6,30.00,45.00,Tuesday
7,-10.6
8,0.0
9,0.0
10,0.0
11,0.0
12,0.0
13,0.0
14,1.4551017757606584
15,-11.556786556090103
16,0.7094479856315843
17,-11.207991717169023
18,1.9322582754165577
2,1, 1, 1, 0, 6,45.00,60.00,Tuesday
7,-10.6
8,0.0
9,0.0
10,0.0
11,0.0
12,0.0
13,0.0
14,1.4182896189113408
15,-11.557495493222647
16,0.6745302107400448
17,-11.210286351899186
18,1.8945514763076506
2,1, 1, 1, 0, 7, 0.00,15.00,Tuesday
7,-10.6
8,0.0
9,0.0
10,0.0
11,0.0
12,0.0
13,0.0
14,1.3836799045867406
15,-11.532590729228682
16,0.6411752369501755
17,-11.203697686540523
18,1.8570585837464129
2,1, 1, 1, 0, 7,15.00,30.00,Tuesday
7,-10.6
8,0.0
9,0.0
10,0.0
11,0.0
12,0.0
13,0.0
14,1.3489562726224443
15,-11.508973718622942
16,0.6110948853294644
17,-11.190991325205914
18,1.8201133996111219
2,1, 1, 1, 0, 7,30.00,45.00,Tuesday
7,-10.6
8,0.0
9,0.0
10,0.0
11,0.0
12,0.0
13,0.0
14,1.3144689330059059
15,-11.486554118944746
16,0.5784301993448935
17,-11.181910426751358
18,1.7836875121402994
2,1, 1, 1, 0, 7,45.00,60.00,Tuesday
7,-10.6
8,0.0
9,0.0
10,0.0
11,0.0
12,0.0
13,0.0
14,1.2802717757992799
15,-11.465261905461333
16,0.5459872502530629
17,-11.173346060056815
18,1.7476428598321452
2,1, 1, 1, 0, 8, 0.00,15.00,Tuesday
7,-10.45
8,0.0
9,0.0
10,0.0
11,0.0
12,0.0
13,0.0
14,1.2450026386435127
15,-11.417007038044345
16,0.5167820009623938
17,-11.137151974839185
18,1.7113250742021676
2,1, 1, 1, 0, 8,15.00,30.00,Tuesday
7,-10.3
8,71.56792871975249
9,1.0
10,22.819555959623899
11,1.0
12,22.819555959623899
13,71.56792871975249
14,1.3127588020968966
15,-9.74420108196615
16,0.9344663585421245
17,-10.777634295867188
18,1.6891442000751383
2,1, 1, 1, 0, 8,30.00,45.00,Tuesday
7,-10.15
8,354.0299290602728
9,1.0
10,109.75755355442667
11,1.0
12,109.75755355442667
13,354.0299290602728
14,1.6598540965962752
15,-3.3830276186199819
16,2.7215012718760365
17,-9.47418446312247
18,1.7197689212836243
2,1, 1, 1, 0, 8,45.00,60.00,Tuesday
7,-10.0
8,650.8026061160458
9,1.0
10,195.8764694434918
11,1.0
12,195.8764694434918
13,650.8026061160458
14,2.0807730958075778
15,3.1011016746185815
16,4.365074594742964
17,-8.175795962707355
18,1.813434828252294
2,1, 1, 1, 0, 9, 0.00,15.00,Tuesday
7,-9.725
8,953.3043628211269
9,1.0
10,278.97248314719988
11,1.0
12,278.97248314719988
13,953.3043628211269
14,2.4326864434766586
15,8.289021119658301
16,5.868436138924153
17,-7.055787056967176
18,1.9608342202919769
2,1, 1, 1, 0, 9,15.00,30.00,Tuesday
7,-9.45
8,1278.5481108613147
9,1.0
10,364.91995730569456
11,1.0
12,364.91995730569456
13,1278.5481108613147
14,2.817154857060243
15,13.365869926933856
16,7.366666358650491
17,-5.958402686430418
18,2.1475993708437848
2,1, 1, 1, 0, 9,30.00,45.00,Tuesday
7,-9.175
8,1501.6689651177185
9,1.0
10,420.35879993239237
11,1.0
12,420.35879993239237
13,1501.6689651177185
14,3.0703467236568406
15,16.124808131458964
16,8.375463618426068
17,-5.30040377304573
18,2.353935608234302
2,1, 1, 1, 0, 9,45.00,60.00,Tuesday
7,-8.9
8,1735.1383193393602
9,1.0
10,478.00138373643099
11,1.0
12,478.00138373643099
13,1735.1383193393602
14,3.370535392416147
15,19.119989041323337
16,9.37856384037741
17,-4.61161181137129
18,2.5727859433130266
2,1, 1, 1, 0,10, 0.00,15.00,Tuesday
7,-8.350000000000002
8,1975.0591100537159
9,1.0
10,536.9185644770597
11,1.0
12,536.9185644770597
13,1975.0591100537159
14,3.6110348603519686
15,20.239015687052527
16,10.415332682955864
17,-3.8025797471245825
18,2.8081766488674719
2,1, 1, 1, 0,10,15.00,30.00,Tuesday
7,-7.800000000000001
8,2223.9470947223846
9,1.0
10,598.0969199229219
11,1.0
12,598.0969199229219
13,2223.9470947223846
14,3.87720984528766
15,21.49329660161693
16,11.480911106170197
17,-3.0170338508490888
18,3.057478624729898
2,1, 1, 1, 0,10,30.00,45.00,Tuesday
7,-7.25
8,2391.940481956653
9,1.0
10,637.6133352894237
11,1.0
12,637.6133352894237
13,2391.940481956653
14,4.0746781566990679
15,21.554041187700365
16,12.237143705543645
17,-2.4777684438761868
18,3.3065221780650719
2,1, 1, 1, 0,10,45.00,60.00,Tuesday
7,-6.7
8,2557.310342406259
9,1.0
10,676.6412284283772
11,1.0
12,676.6412284283772
13,2557.310342406259
14,4.28802792940065
15,21.715060434136697
16,12.962230512479494
17,-1.915297781143181
18,3.5469204951298645
2,1, 1, 1, 0,11, 0.00,15.00,Tuesday
7,-6.275
8,2719.427216426026
9,1.0
10,715.0112779846514
11,1.0
12,715.0112779846514
13,2719.427216426026
14,4.577565162273865
15,23.812510299793588
16,13.686431292813609
17,-1.1862173619534815
18,3.781953997433052
2,1, 1, 1, 0,11,15.00,30.00,Tuesday
7,-5.85
8,2877.417086129279
9,1.0
10,752.5077794605232
11,1.0
12,752.5077794605232
13,2877.417086129279
14,4.852579164642615
15,25.747195765761036
16,14.398270410847147
17,-0.4696084880636704
18,4.016429519637597
2,1, 1, 1, 0,11,30.00,45.00,Tuesday
7,-5.425
8,2835.5349808371727
9,1.0
10,742.5988714321785
11,1.0
12,742.5988714321785
13,2835.5349808371727
14,5.003772504747051
15,25.59875982653174
16,14.465923913379811
17,-0.16708525403964814
18,4.235428174507916
2,1, 1, 1, 0,11,45.00,60.00,Tuesday
7,-5.0
8,2772.923910988253
9,1.0
10,727.8169025450712
11,1.0
12,727.8169025450712
13,2772.923910988253
14,5.150571250653254
15,25.36920782186452
16,14.436367173074473
17,0.10399266018862363
18,4.428653456296308
2,1, 1, 1, 0,12, 0.00,15.00,Tuesday
7,-4.575
8,2664.822954671648
9,1.0
10,700.3759009170325
11,1.0
12,700.3759009170325
13,2664.822954671648
14,5.247542297905234
15,24.626280649175738
16,14.222185067110104
17,0.31284092996088477
18,4.59125266440739
2,1, 1, 1, 0,12,15.00,30.00,Tuesday
7,-4.15
8,2580.894828475442
9,1.0
10,681.6705029034473
11,1.0
12,681.6705029034473
13,2580.894828475442
14,5.363502729390616
15,24.29556069444637
16,14.114417282224963
17,0.6002693880742527
18,4.730266203322818
2,1, 1, 1, 0,12,30.00,45.00,Tuesday
7,-3.7249999999999998
8,2259.3077124563117
9,1.0
10,602.01865277251
11,1.0
12,602.01865277251
13,2259.3077124563117
14,5.271098424082976
15,21.26690948368645
16,13.162095111850136
17,0.38390783786883278
18,4.828801505344799
2,1, 1, 1, 0,12,45.00,60.00,Tuesday
7,-3.3
8,1841.4287184027517
9,1.0
10,493.55004396206007
11,1.0
12,493.55004396206007
13,1841.4287184027517
14,5.080256550565237
15,17.087935454301083
16,11.694346301015799
17,-0.09705388755475042
18,4.870660093083783
2,1, 1, 1, 0,13, 0.00,15.00,Tuesday
7,-3.0249999999999996
8,1510.1870283450449
9,1.0
10,412.335026418112
11,1.0
12,412.335026418112
13,1510.1870283450449
14,4.9527553897224589
15,14.242804499966308
16,10.547456148133847
17,-0.4150687376140354
18,4.8619995256615129
2,1, 1, 1, 0,13,15.00,30.00,Tuesday
7,-2.75
8,1097.5186598189753
9,1.0
10,305.94037763660148
11,1.0
12,305.94037763660148
13,1097.5186598189753
14,4.694940647042929
15,10.067237240439067
16,8.977169169090815
17,-0.9759380872919792
18,4.805568838170264
2,1, 1, 1, 0,13,30.00,45.00,Tuesday
7,-2.475
8,997.8347210574955
9,1.0
10,281.0763483922329
11,1.0
12,281.0763483922329
13,997.8347210574955
14,4.673752126580478
15,9.55831252998353
16,8.571892493521887
17,-0.8444967492212072
18,4.737678888942588
2,1, 1, 1, 0,13,45.00,60.00,Tuesday
7,-2.2
8,900.1994191962868
9,1.0
10,256.7721209415886
11,1.0
12,256.7721209415886
13,900.1994191962868
14,4.636303676533753
15,8.950159556888508
16,8.220703018926543
17,-0.6907290502681462
18,4.682449785075046
2,1, 1, 1, 0,14, 0.00,15.00,Tuesday
7,-1.9250000000000003
8,732.8655907144981
9,1.0
10,210.73276284570657
11,1.0
12,210.73276284570657
13,732.8655907144981
14,4.527996314576459
15,7.4012473374220699
16,7.501208301124734
17,-0.785118592261199
18,4.634114446009493
2,1, 1, 1, 0,14,15.00,30.00,Tuesday
7,-1.6500000000000002
8,646.3774883140063
9,1.0
10,189.38488290342594
11,1.0
12,189.38488290342594
13,646.3774883140063
14,4.5060264062509109
15,6.997197645243113
16,7.154242693526442
17,-0.6677991270714756
18,4.592499535081125
2,1, 1, 1, 0,14,30.00,45.00,Tuesday
7,-1.375
8,617.9858986324632
9,1.0
10,179.3940297802914
11,1.0
12,179.3940297802914
13,617.9858986324632
14,4.502671474275462
15,7.11691102470189
16,7.003256748084084
17,-0.44389093334569909
18,4.55971587646987
2,1, 1, 1, 0,14,45.00,60.00,Tuesday
7,-1.1
8,588.6932238625436
9,1.0
10,169.43349014176136
11,1.0
12,169.43349014176136
13,588.6932238625436
14,4.498842355902303
15,7.214741692471835
16,6.851269528482192
17,-0.22022483070378486
18,4.534799352286735
2,1, 1, 1, 0,15, 0.00,15.00,Tuesday
7,-1.1
8,618.6771475466255
9,1.0
10,178.15692317953907
11,1.0
12,178.15692317953907
13,618.6771475466255
14,4.543689867814846
15,8.03040880501812
16,6.992198341190033
17,-0.09931977039627782
18,4.520654534582024
2,1, 1, 1, 0,15,15.00,30.00,Tuesday
7,-1.1
8,581.0506986351386
9,1.0
10,166.40516310952945
11,1.0
12,166.40516310952945
13,581.0506986351386
14,4.510655121312743
15,7.666524637535631
16,6.803126301130533
17,-0.18901205033796487
18,4.509481058925265
2,1, 1, 1, 0,15,30.00,45.00,Tuesday
7,-1.1
8,487.62380365139259
9,1.0
10,140.8967369711617
11,1.0
12,140.8967369711617
13,487.62380365139259
14,4.413549225164115
15,6.451867978991036
16,6.360566817638755
17,-0.4638233062193535
18,4.489243037356016
2,1, 1, 1, 0,15,45.00,60.00,Tuesday
7,-1.1
8,399.16345704405486
9,1.0
10,116.57355796743004
11,1.0
12,116.57355796743004
13,399.16345704405486
14,4.328696889506159
15,5.250759647730046
16,5.913586950165495
17,-0.7434543477899069
18,4.45359690504193
2,1, 1, 1, 0,16, 0.00,15.00,Tuesday
7,-1.1
8,315.01856693619978
9,1.0
10,93.14939272689483
11,1.0
12,93.14939272689483
13,315.01856693619978
14,4.2432228759419738
15,4.194827208528139
16,5.47092896036861
17,-0.9573643084875698
18,4.40363845577972
2,1, 1, 1, 0,16,15.00,30.00,Tuesday
7,-1.1
8,194.46754305814083
9,1.0
10,57.94047897402063
11,1.0
12,57.94047897402063
13,194.46754305814083
14,4.083886670420839
15,2.0666976229886244
16,4.777826508593989
17,-1.3749692844837114
18,4.33567974849231
2,1, 1, 1, 0,16,30.00,45.00,Tuesday
7,-1.1
8,149.82451960460407
9,1.0
10,45.38251793443488
11,1.0
12,45.38251793443488
13,149.82451960460407
14,4.020960541231172
15,1.4503911554643612
16,4.466368606074923
17,-1.5048259306580576
18,4.259031947387637
2,1, 1, 1, 0,16,45.00,60.00,Tuesday
7,-1.1
8,104.00572991011612
9,1.0
10,32.02625108222755
11,1.0
12,32.02625108222755
13,104.00572991011612
14,3.927438479521707
15,0.5813212080855512
16,4.144372504642888
17,-1.6657404509309686
18,4.180994375945901
2,1, 1, 1, 0,17, 0.00,15.00,Tuesday
7,-1.1
8,56.8254897678188
9,1.0
10,17.762198626050539
11,1.0
12,17.762198626050539
13,56.8254897678188
14,3.807164042748169
15,-0.6781293420840989
16,3.795458364279625
17,-1.9670485316764826
18,4.098898043354118
2,1, 1, 1, 0,17,15.00,30.00,Tuesday
7,-1.1
8,0.0
9,0.0
10,0.0
11,0.0
12,0.0
13,0.0
14,3.6401831425169095
15,-2.5188643857008889
16,3.3686476763964494
17,-2.280867918521494
18,4.0029471793040749
2,1, 1, 1, 0,17,30.00,45.00,Tuesday
7,-1.1
8,0.0
9,0.0
10,0.0
11,0.0
12,0.0
13,0.0
14,3.5916471217624825
15,-2.6586660844188798
16,3.2711404223663296
17,-2.3649745168884239
18,3.9081184565971185
2,1, 1, 1, 0,17,45.00,60.00,Tuesday
7,-1.1
8,0.0
9,0.0
10,0.0
11,0.0
12,0.0
13,0.0
14,3.5294753147988136
15,-2.856109396429526
16,3.2120899132582965
17,-2.464718905292443
18,3.8280558314608359
2,1, 1, 1, 0,18, 0.00,15.00,Tuesday
7,-1.25
8,0.0
9,0.0
10,0.0
11,0.0
12,0.0
13,0.0
14,3.478923181669192
15,-3.0030798262254416
16,3.1438453470572087
17,-2.6189414290746528
18,3.7651109638352615
2,1, 1, 1, 0,18,15.00,30.00,Tuesday
7,-1.4
8,0.0
9,0.0
10,0.0
11,0.0
12,0.0
13,0.0
14,3.4336518740145309
15,-3.155378407895265
16,3.0945741969210305
17,-2.7608103433304906
18,3.7152450458181245
2,1, 1, 1, 0,18,30.00,45.00,Tuesday
7,-1.5499999999999999
8,0.0
9,0.0
10,0.0
11,0.0
12,0.0
13,0.0
14,3.3939325981264245
15,-3.307085983597812
16,3.0451244108025437
17,-2.906835213661111
18,3.6735192904471507
2,1, 1, 1, 0,18,45.00,60.00,Tuesday
7,-1.7
8,0.0
9,0.0
10,0.0
11,0.0
12,0.0
13,0.0
14,3.355744679086907
15,-3.4590264326128254
16,2.9993744773844357
17,-3.052303606313842
18,3.6362757002802157
2,1, 1, 1, 0,19, 0.00,15.00,Tuesday
7,-1.825
8,0.0
9,0.0
10,0.0
11,0.0
12,0.0
13,0.0
14,3.3445326211130239
15,-3.30154624425112
16,2.9680413066292887
17,-3.0293021224064207
18,3.605092978521466
2,1, 1, 1, 0,19,15.00,30.00,Tuesday
7,-1.9500000000000002
8,0.0
9,0.0
10,0.0
11,0.0
12,0.0
13,0.0
14,3.332872563265651
15,-3.226591619192852
16,2.9469578210746478
17,-3.0381938928574074
18,3.581513449127181
2,1, 1, 1, 0,19,30.00,45.00,Tuesday
7,-2.075
8,0.0
9,0.0
10,0.0
11,0.0
12,0.0
13,0.0
14,3.3165605814580285
15,-3.2980920500716417
16,2.9295422102914019
17,-3.1266710899642478
18,3.563868321900683
2,1, 1, 1, 0,19,45.00,60.00,Tuesday
7,-2.2
8,0.0
9,0.0
10,0.0
11,0.0
12,0.0
13,0.0
14,3.3035995339863817
15,-3.26870127611617
16,2.914981502556657
17,-3.1542943781821579
18,3.549145385203852
2,1, 1, 1, 0,20, 0.00,15.00,Tuesday
7,-1.9250000000000003
8,0.0
9,0.0
10,0.0
11,0.0
12,0.0
13,0.0
14,3.3061028853236555
15,-2.9657010097071234
16,2.9289170060538369
17,-2.875752626835208
18,3.5367284826701974
2,1, 1, 1, 0,20,15.00,30.00,Tuesday
7,-1.6500000000000002
8,0.0
9,0.0
10,0.0
11,0.0
12,0.0
13,0.0
14,3.308551559694716
15,-2.665904756017483
16,2.947011173025544
17,-2.598674544812525
18,3.526670395719486
2,1, 1, 1, 0,20,30.00,45.00,Tuesday
7,-1.375
8,0.0
9,0.0
10,0.0
11,0.0
12,0.0
13,0.0
14,3.312234260113492
15,-2.3674656923574979
16,2.9660209678152116
17,-2.3217559424951448
18,3.5187001231042189
2,1, 1, 1, 0,20,45.00,60.00,Tuesday
7,-1.1
8,0.0
9,0.0
10,0.0
11,0.0
12,0.0
13,0.0
14,3.317100958770073
15,-2.070369041399719
16,2.986267461089369
17,-2.0449716013228
18,3.512392331529939
2,1, 1, 1, 0,21, 0.00,15.00,Tuesday
7,-1.25
8,0.0
9,0.0
10,0.0
11,0.0
12,0.0
13,0.0
14,3.2793686242596049
15,-2.3586771075820209
16,2.958145362926416
17,-2.2741481120759774
18,3.502090426264967
2,1, 1, 1, 0,21,15.00,30.00,Tuesday
7,-1.4
8,0.0
9,0.0
10,0.0
11,0.0
12,0.0
13,0.0
14,3.240968796866232
15,-2.5790381376071149
16,2.9187399634478199
17,-2.4448715335797717
18,3.483163697736105
2,1, 1, 1, 0,21,30.00,45.00,Tuesday
7,-1.5499999999999999
8,0.0
9,0.0
10,0.0
11,0.0
12,0.0
13,0.0
14,3.1898324071457697
15,-2.932729503154626
16,2.864578003117117
17,-2.7009889100738748
18,3.454134235340731
2,1, 1, 1, 0,21,45.00,60.00,Tuesday
7,-1.7
8,0.0
9,0.0
10,0.0
11,0.0
12,0.0
13,0.0
14,3.1333482708893798
15,-3.3953821350225836
16,2.7993119679524058
17,-2.989875089220277
18,3.416597580218091
2,1, 1, 1, 0,22, 0.00,15.00,Tuesday
7,-1.5499999999999999
8,0.0
9,0.0
10,0.0
11,0.0
12,0.0
13,0.0
14,3.148231231215676
15,-2.895045647280735
16,2.791310755576262
17,-2.673159531454303
18,3.383879514686191
2,1, 1, 1, 0,22,15.00,30.00,Tuesday
7,-1.4
8,0.0
9,0.0
10,0.0
11,0.0
12,0.0
13,0.0
14,3.1543919916428027
15,-2.5561388692333435
16,2.809334325901432
17,-2.4294580878247418
18,3.363744441921248
2,1, 1, 1, 0,22,30.00,45.00,Tuesday
7,-1.25
8,0.0
9,0.0
10,0.0
11,0.0
12,0.0
13,0.0
14,3.1582952920272797
15,-2.332124666734572
16,2.822692719678514
17,-2.2494123325084844
18,3.3544327060247487
2,1, 1, 1, 0,22,45.00,60.00,Tuesday
7,-1.1
8,0.0
9,0.0
10,0.0
11,0.0
12,0.0
13,0.0
14,3.165989887419175
15,-2.042581711046443
16,2.842616438772211
17,-2.0195902856240766
18,3.351005993481826
2,1, 1, 1, 0,23, 0.00,15.00,Tuesday
7,-1.25
8,0.0
9,0.0
10,0.0
11,0.0
12,0.0
13,0.0
14,3.129167216706473
15,-2.3460957868730225
16,2.8088445774907315
17,-2.338509581406754
18,3.344139249622261
2,1, 1, 1, 0,23,15.00,30.00,Tuesday
7,-1.4
8,0.0
9,0.0
10,0.0
11,0.0
12,0.0
13,0.0
14,3.093708044860142
15,-2.6506185541540039
16,2.7558628520060894
17,-2.657968301927326
18,3.3285273314093275
2,1, 1, 1, 0,23,30.00,45.00,Tuesday
7,-1.5499999999999999
8,0.0
9,0.0
10,0.0
11,0.0
12,0.0
13,0.0
14,3.0537125691788655
15,-2.955704258153033
16,2.7015503508056897
17,-2.977174707014683
18,3.30437309512662
2,1, 1, 1, 0,23,45.00,60.00,Tuesday
7,-1.7
8,0.0
9,0.0
10,0.0
11,0.0
12,0.0
13,0.0
14,3.01122017151773
15,-3.2611037862381417
16,2.64340679236534
17,-3.296383455551336
18,3.2740728762135138
2,1, 1, 1, 0,24, 0.00,15.00,Tuesday
7,-1.7
8,0.0
9,0.0
10,0.0
11,0.0
12,0.0
13,0.0
14,2.9857462651571158
15,-3.314856677356712
16,2.6082934659971217
17,-3.3539666226540705
18,3.2425458654026286
2,1, 1, 1, 0,24,15.00,30.00,Tuesday
7,-1.7
8,0.0
9,0.0
10,0.0
11,0.0
12,0.0
13,0.0
14,2.957256215049965
15,-3.369360291042174
16,2.5784990558656775
17,-3.4154189668282699
18,3.212687071884113
2,1, 1, 1, 0,24,30.00,45.00,Tuesday
7,-1.7
8,0.0
9,0.0
10,0.0
11,0.0
12,0.0
13,0.0
14,2.9294317645472449
15,-3.423732198747402
16,2.5479437332227805
17,-3.4770786863824698
18,3.184763774353133
2,1, 1, 1, 0,24,45.00,60.00,Tuesday
7,-1.7
8,0.0
9,0.0
10,0.0
11,0.0
12,0.0
13,0.0
14,2.9021715779602146
15,-3.4781053570300695
16,2.5179897469212735
17,-3.5386412010400365
18,3.158064875015576
End of Data
 Number of Records Written=        1152
