Program Version,EnergyPlus, Version 9.5.0-de239b2e5f, YMD=2023.02.16 18:16
1,5,Environment Title[],Latitude[deg],Longitude[deg],Time Zone[],Elevation[m]
2,8,Day of Simulation[],Month[],Day of Month[],DST Indicator[1=yes 0=no],Hour[],StartMinute[],EndMinute[],DayType
3,5,Cumulative Day of Simulation[],Month[],Day of Month[],DST Indicator[1=yes 0=no],DayType  ! When Daily Report Variables Requested
4,2,Cumulative Days of Simulation[],Month[]  ! When Monthly Report Variables Requested
5,1,Cumulative Days of Simulation[] ! When Run Period Report Variables Requested
6,1,Calendar Year of Simulation[] ! When Annual Report Variables Requested
7,1,Environment,Site Outdoor Air Drybulb Temperature [C] !TimeStep
8,1,ZONE ONE,Zone Windows Total Transmitted Solar Radiation Rate [W] !TimeStep
9,1,ZN001:WALL001,Surface Outside Face Sunlit Fraction [] !TimeStep
10,1,ZN001:WALL001,Surface Outside Face Incident Solar Radiation Rate per Area [W/m2] !TimeStep
11,1,ZN001:WALL001:WIN001,Surface Outside Face Sunlit Fraction [] !TimeStep
12,1,ZN001:WALL001:WIN001,Surface Outside Face Incident Solar Radiation Rate per Area [W/m2] !TimeStep
13,1,ZN001:WALL001:WIN001,Surface Window Transmitted Solar Radiation Rate [W] !TimeStep
14,1,ZN001:WALL001,Surface Inside Face Temperature [C] !TimeStep
15,1,ZN001:WALL001,Surface Outside Face Temperature [C] !TimeStep
16,1,ZN001:WALL001:WIN001,Surface Inside Face Temperature [C] !TimeStep
17,1,ZN001:WALL001:WIN001,Surface Outside Face Temperature [C] !TimeStep
18,1,ZONE ONE,Zone Mean Air Temperature [C] !TimeStep
End of Data Dictionary
1,RUN PERIOD 1,  41.98, -87.92,  -6.00, 201.00
2,1, 1, 1, 0, 1, 0.00,15.00,Tuesday
7,-4.324999999999999
8,0.0
9,0.0
10,0.0
11,0.0
12,0.0
13,0.0
14,3.8066619488232118
15,-5.934553087161844
16,3.2659056874811656
17,-5.789092599072887
18,4.231156044284975
2,1, 1, 1, 0, 1,15.00,30.00,Tuesday
7,-6.949999999999999
8,0.0
9,0.0
10,0.0
11,0.0
12,0.0
13,0.0
14,3.6373556899741765
15,-8.402155977198224
16,2.9608516648777369
17,-8.113160262243241
18,4.152656634438428
2,1, 1, 1, 0, 1,30.00,45.00,Tuesday
7,-9.575
8,0.0
9,0.0
10,0.0
11,0.0
12,0.0
13,0.0
14,3.451162883450674
15,-10.877704777863562
16,2.65234044333522
17,-10.444813735569199
18,4.046163429677424
2,1, 1, 1, 0, 1,45.00,60.00,Tuesday
7,-12.2
8,0.0
9,0.0
10,0.0
11,0.0
12,0.0
13,0.0
14,3.251387934586835
15,-13.359821078413649
16,2.329564456701405
17,-12.785031119135056
18,3.91956030992198
2,1, 1, 1, 0, 2, 0.00,15.00,Tuesday
7,-12.075
8,0.0
9,0.0
10,0.0
11,0.0
12,0.0
13,0.0
14,3.199808806459946
15,-13.160885310969709
16,2.229152422900711
17,-12.64769289053379
18,3.803750751052134
2,1, 1, 1, 0, 2,15.00,30.00,Tuesday
7,-11.95
8,0.0
9,0.0
10,0.0
11,0.0
12,0.0
13,0.0
14,3.1335918245142255
15,-12.983532367320692
16,2.1797258210233965
17,-12.462279356498982
18,3.7144913437115885
2,1, 1, 1, 0, 2,30.00,45.00,Tuesday
7,-11.825
8,0.0
9,0.0
10,0.0
11,0.0
12,0.0
13,0.0
14,3.0819714954796768
15,-12.80509565992557
16,2.1359912814205019
17,-12.295131543816524
18,3.6483494550645
2,1, 1, 1, 0, 2,45.00,60.00,Tuesday
7,-11.7
8,0.0
9,0.0
10,0.0
11,0.0
12,0.0
13,0.0
14,3.040118861892212
15,-12.626726393235366
16,2.101044049889765
17,-12.107450784599337
18,3.596350677847033
2,1, 1, 1, 0, 3, 0.00,15.00,Tuesday
7,-11.549999999999999
8,0.0
9,0.0
10,0.0
11,0.0
12,0.0
13,0.0
14,2.9992409019999659
15,-12.501260100714769
16,2.0719913955866788
17,-11.979585228530596
18,3.550633325238408
2,1, 1, 1, 0, 3,15.00,30.00,Tuesday
7,-11.399999999999999
8,0.0
9,0.0
10,0.0
11,0.0
12,0.0
13,0.0
14,2.9613705921760697
15,-12.377182829713869
16,2.0434151059534999
17,-11.845728286164047
18,3.5070934310368084
2,1, 1, 1, 0, 3,30.00,45.00,Tuesday
7,-11.25
8,0.0
9,0.0
10,0.0
11,0.0
12,0.0
13,0.0
14,2.92428397165104
15,-12.254658985643065
16,2.01655350813337
17,-11.712018239029078
18,3.4644419833167308
2,1, 1, 1, 0, 3,45.00,60.00,Tuesday
7,-11.1
8,0.0
9,0.0
10,0.0
11,0.0
12,0.0
13,0.0
14,2.8875890556556049
15,-12.133750516449418
16,1.9902592318347275
17,-11.578976868582913
18,3.4224711176990767
2,1, 1, 1, 0, 4, 0.00,15.00,Tuesday
7,-11.1
8,0.0
9,0.0
10,0.0
11,0.0
12,0.0
13,0.0
14,2.8476600841875818
15,-12.104229067267442
16,1.95174224457719
17,-11.566334566502576
18,3.380828696308379
2,1, 1, 1, 0, 4,15.00,30.00,Tuesday
7,-11.1
8,0.0
9,0.0
10,0.0
11,0.0
12,0.0
13,0.0
14,2.808167371020763
15,-12.075837506672232
16,1.9140347119050603
17,-11.55917352936683
18,3.3392970187619546
2,1, 1, 1, 0, 4,30.00,45.00,Tuesday
7,-11.1
8,0.0
9,0.0
10,0.0
11,0.0
12,0.0
13,0.0
14,2.7687031286013608
15,-12.049027791328827
16,1.876543567968838
17,-11.552545806361764
18,3.2978287286936709
2,1, 1, 1, 0, 4,45.00,60.00,Tuesday
7,-11.1
8,0.0
9,0.0
10,0.0
11,0.0
12,0.0
13,0.0
14,2.729284852500686
15,-12.023671984448
16,1.839116879145422
17,-11.546205067015422
18,3.2564426770257586
2,1, 1, 1, 0, 5, 0.00,15.00,Tuesday
7,-10.975
8,0.0
9,0.0
10,0.0
11,0.0
12,0.0
13,0.0
14,2.695184539640465
15,-11.901475040410736
16,1.8127808349929638
17,-11.43880120622299
18,3.215850077656593
2,1, 1, 1, 0, 5,15.00,30.00,Tuesday
7,-10.85
8,0.0
9,0.0
10,0.0
11,0.0
12,0.0
13,0.0
14,2.6611900923293816
15,-11.779369787387282
16,1.7874823260319204
17,-11.325065090504382
18,3.1764186440852977
2,1, 1, 1, 0, 5,30.00,45.00,Tuesday
7,-10.725
8,0.0
9,0.0
10,0.0
11,0.0
12,0.0
13,0.0
14,2.6279746724868717
15,-11.657247820754906
16,1.7626395055042963
17,-11.210910160597223
18,3.138037228018472
2,1, 1, 1, 0, 5,45.00,60.00,Tuesday
7,-10.6
8,0.0
9,0.0
10,0.0
11,0.0
12,0.0
13,0.0
14,2.5954312709998459
15,-11.535136947254248
16,1.7384927793032148
17,-11.096688480119952
18,3.100459718568076
2,1, 1, 1, 0, 6, 0.00,15.00,Tuesday
7,-10.6
8,0.0
9,0.0
10,0.0
11,0.0
12,0.0
13,0.0
14,2.555929429046218
15,-11.53593102887974
16,1.7030041347866246
17,-11.092072965187868
18,3.062415306155463
2,1, 1, 1, 0, 6,15.00,30.00,Tuesday
7,-10.6
8,0.0
9,0.0
10,0.0
11,0.0
12,0.0
13,0.0
14,2.517026436561498
15,-11.536654475122884
16,1.6658780355917884
17,-11.094293927322099
18,3.023250817870375
2,1, 1, 1, 0, 6,30.00,45.00,Tuesday
7,-10.6
8,0.0
9,0.0
10,0.0
11,0.0
12,0.0
13,0.0
14,2.4776487237387658
15,-11.537418498155077
16,1.6287619648599048
17,-11.096914522735006
18,2.9831452562004587
2,1, 1, 1, 0, 6,45.00,60.00,Tuesday
7,-10.6
8,0.0
9,0.0
10,0.0
11,0.0
12,0.0
13,0.0
14,2.4379650590394306
15,-11.538182161967406
16,1.5912720662525999
17,-11.099588904280609
18,2.9425145134131736
2,1, 1, 1, 0, 7, 0.00,15.00,Tuesday
7,-10.6
8,0.0
9,0.0
10,0.0
11,0.0
12,0.0
13,0.0
14,2.400413876794324
15,-11.513838519254448
16,1.554561740146596
17,-11.093066539328106
18,2.9020810456223558
2,1, 1, 1, 0, 7,15.00,30.00,Tuesday
7,-10.6
8,0.0
9,0.0
10,0.0
11,0.0
12,0.0
13,0.0
14,2.362719238995029
15,-11.49075363201853
16,1.518962572732903
17,-11.086177694831975
18,2.8622093133947597
2,1, 1, 1, 0, 7,30.00,45.00,Tuesday
7,-10.6
8,0.0
9,0.0
10,0.0
11,0.0
12,0.0
13,0.0
14,2.3253180596901314
15,-11.468840561391695
16,1.4834676344461287
17,-11.079525330580737
18,2.8228582694751389
2,1, 1, 1, 0, 7,45.00,60.00,Tuesday
7,-10.6
8,0.0
9,0.0
10,0.0
11,0.0
12,0.0
13,0.0
14,2.2882097952814459
15,-11.448030391544466
16,1.448241712740355
17,-11.073111567355682
18,2.7838825565216336
2,1, 1, 1, 0, 8, 0.00,15.00,Tuesday
7,-10.45
8,0.0
9,0.0
10,0.0
11,0.0
12,0.0
13,0.0
14,2.2501049332193907
15,-11.399393251809114
16,1.416698918780071
17,-11.036104611180463
18,2.7446376787266266
2,1, 1, 1, 0, 8,15.00,30.00,Tuesday
7,-10.3
8,92.15750704739708
9,1.0
10,22.819555959623899
11,1.0
12,22.819555959623899
13,92.15750704739708
14,2.3184807512529028
15,-9.72637233439902
16,1.788604603483634
17,-10.701216756709187
18,2.720231244920303
2,1, 1, 1, 0, 8,30.00,45.00,Tuesday
7,-10.15
8,454.0668273181285
9,1.0
10,109.75755355442667
11,1.0
12,109.75755355442667
13,454.0668273181285
14,2.6760675502341897
15,-3.3622437961742306
16,3.435683408409261
17,-9.489541154670974
18,2.751186183911416
2,1, 1, 1, 0, 8,45.00,60.00,Tuesday
7,-10.0
8,829.8784025660395
9,1.0
10,195.8764694434918
11,1.0
12,195.8764694434918
13,829.8784025660395
14,3.1088542767753997
15,3.117415851888617
16,4.9983136688787799
17,-8.270980407325851
18,2.8474613297424646
2,1, 1, 1, 0, 9, 0.00,15.00,Tuesday
7,-9.725
8,1208.431253707413
9,1.0
10,278.97248314719988
11,1.0
12,278.97248314719988
13,1208.431253707413
14,3.4852582101814435
15,8.306800717573332
16,6.440769816704119
17,-7.204727298557941
18,2.9983179918794575
2,1, 1, 1, 0, 9,15.00,30.00,Tuesday
7,-9.45
8,1611.27847082868
9,1.0
10,364.91995730569456
11,1.0
12,364.91995730569456
13,1611.27847082868
14,3.8836879887451407
15,13.382043988941911
16,7.889809686486785
17,-6.1520379287995869
18,3.189236866849969
2,1, 1, 1, 0, 9,30.00,45.00,Tuesday
7,-9.175
8,1882.5474509696963
9,1.0
10,420.35879993239237
11,1.0
12,420.35879993239237
13,1882.5474509696963
14,4.146719620294419
15,16.14059946347987
16,8.879654168943887
17,-5.511126326044632
18,3.400908119336194
2,1, 1, 1, 0, 9,45.00,60.00,Tuesday
7,-8.9
8,2165.2536956705005
9,1.0
10,478.00138373643099
11,1.0
12,478.00138373643099
13,2165.2536956705005
14,4.461631248661529
15,19.135442559782058
16,9.857789376726544
17,-4.842883366952833
18,3.62470910180753
2,1, 1, 1, 0,10, 0.00,15.00,Tuesday
7,-8.350000000000002
8,2454.840672138349
9,1.0
10,536.9185644770597
11,1.0
12,536.9185644770597
13,2454.840672138349
14,4.717525771083045
15,20.253350207863446
16,10.871433858290743
17,-4.0417104660933209
18,3.8665388122833299
2,1, 1, 1, 0,10,15.00,30.00,Tuesday
7,-7.800000000000001
8,2754.837686584413
9,1.0
10,598.0969199229219
11,1.0
12,598.0969199229219
13,2754.837686584413
14,5.000266478545825
15,21.506812064879037
16,11.910412860692702
17,-3.2658766455328989
18,4.124843254811616
2,1, 1, 1, 0,10,30.00,45.00,Tuesday
7,-7.25
8,2954.460675234528
9,1.0
10,637.6133352894237
11,1.0
12,637.6133352894237
13,2954.460675234528
14,5.213198647799618
15,21.566811966035134
16,12.655834581506725
17,-2.725842167565702
18,4.385187438106904
2,1, 1, 1, 0,10,45.00,60.00,Tuesday
7,-6.7
8,3151.0542115929945
9,1.0
10,676.6412284283772
11,1.0
12,676.6412284283772
13,3151.0542115929945
14,5.4436511848770519
15,21.727226452911258
16,13.369314441878885
17,-2.1635701130657027
18,4.638379193999668
2,1, 1, 1, 0,11, 0.00,15.00,Tuesday
7,-6.275
8,3343.9250631385687
9,1.0
10,715.0112779846514
11,1.0
12,715.0112779846514
13,3343.9250631385687
14,5.749842662230201
15,23.82480000300173
16,14.083316853212864
17,-1.4490311127374299
18,4.887407809740841
2,1, 1, 1, 0,11,15.00,30.00,Tuesday
7,-5.85
8,3532.070082927922
9,1.0
10,752.5077794605232
11,1.0
12,752.5077794605232
13,3532.070082927922
14,6.042530444794725
15,25.759590830661798
16,14.787437043560829
17,-0.7457676699090143
18,5.137016424139313
2,1, 1, 1, 0,11,30.00,45.00,Tuesday
7,-5.425
8,3479.1857131981189
9,1.0
10,742.5988714321785
11,1.0
12,742.5988714321785
13,3479.1857131981189
14,6.207768293629818
15,25.611219623528045
16,14.874278530622519
17,-0.440503898943291
18,5.371708660777355
2,1, 1, 1, 0,11,45.00,60.00,Tuesday
7,-5.0
8,3401.966428615978
9,1.0
10,727.8169025450712
11,1.0
12,727.8169025450712
13,3401.966428615978
14,6.368391567701304
15,25.38184651092108
16,14.867098441260965
17,-0.16450812964524176
18,5.5804545901077449
2,1, 1, 1, 0,12, 0.00,15.00,Tuesday
7,-4.575
8,3268.9162799877196
9,1.0
10,700.3759009170325
11,1.0
12,700.3759009170325
13,3268.9162799877196
14,6.476668494505834
15,24.63907048483446
16,14.686811958706472
17,0.05623897437430969
18,5.75770268021663
2,1, 1, 1, 0,12,15.00,30.00,Tuesday
7,-4.15
8,3167.996389959925
9,1.0
10,681.6705029034473
11,1.0
12,681.6705029034473
13,3167.996389959925
14,6.605015711909545
15,24.308506294175
16,14.600228223632485
17,0.3488687259211929
18,5.910624675907316
2,1, 1, 1, 0,12,30.00,45.00,Tuesday
7,-3.7249999999999998
8,2777.3496836530587
9,1.0
10,602.01865277251
11,1.0
12,602.01865277251
13,2777.3496836530587
14,6.515941835859591
15,21.279960729324
16,13.711151868714069
17,0.17142770886732706
18,6.020848771383486
2,1, 1, 1, 0,12,45.00,60.00,Tuesday
7,-3.3
8,2266.039030991335
9,1.0
10,493.55004396206007
11,1.0
12,493.55004396206007
13,2266.039030991335
14,6.325087398544713
15,17.10124071964487
16,12.332073227779006
17,-0.27200511808712238
18,6.070313659945233
2,1, 1, 1, 0,13, 0.00,15.00,Tuesday
7,-3.0249999999999996
8,1864.918535661873
9,1.0
10,412.335026418112
11,1.0
12,412.335026418112
13,1864.918535661873
14,6.188876339405551
15,14.256565601434652
16,11.2398082146006
17,-0.5627464952787022
18,6.070715216535341
2,1, 1, 1, 0,13,15.00,30.00,Tuesday
7,-2.75
8,1360.7676135935772
9,1.0
10,305.94037763660148
11,1.0
12,305.94037763660148
13,1360.7676135935772
14,5.920527798417765
15,10.081602052887332
16,9.749374239162876
17,-1.0793207087158976
18,6.02348171427661
2,1, 1, 1, 0,13,30.00,45.00,Tuesday
7,-2.475
8,1239.845359812998
9,1.0
10,281.0763483922329
11,1.0
12,281.0763483922329
13,1239.845359812998
14,5.899769576232449
15,9.572097694593492
16,9.358999436332966
17,-0.9391710945201339
18,5.961992664952971
2,1, 1, 1, 0,13,45.00,60.00,Tuesday
7,-2.2
8,1121.425395556538
9,1.0
10,256.7721209415886
11,1.0
12,256.7721209415886
13,1121.425395556538
14,5.86308792217767
15,8.964404783079369
16,9.031356114560595
17,-0.7768898991284914
18,5.910627665420581
2,1, 1, 1, 0,14, 0.00,15.00,Tuesday
7,-1.9250000000000003
8,914.5926123773469
9,1.0
10,210.73276284570657
11,1.0
12,210.73276284570657
13,914.5926123773469
14,5.748379604084182
15,7.415892392366709
16,8.359656843257597
17,-0.8497751506660052
18,5.864398447309852
2,1, 1, 1, 0,14,15.00,30.00,Tuesday
7,-1.6500000000000002
8,809.6775858076765
9,1.0
10,189.38488290342594
11,1.0
12,189.38488290342594
13,809.6775858076765
14,5.72586839329014
15,7.012533626879816
16,8.026159191064778
17,-0.7239066658418096
18,5.823626008349042
2,1, 1, 1, 0,14,30.00,45.00,Tuesday
7,-1.375
8,773.1146972475121
9,1.0
10,179.3940297802914
11,1.0
12,179.3940297802914
13,773.1146972475121
14,5.720409514537504
15,7.132800682182004
16,7.892363087033459
17,-0.4927078503546909
18,5.790899425516002
2,1, 1, 1, 0,14,45.00,60.00,Tuesday
7,-1.1
8,735.7893474842847
9,1.0
10,169.43349014176136
11,1.0
12,169.43349014176136
13,735.7893474842847
14,5.7140865671616078
15,7.231192861238762
16,7.755811638169462
17,-0.2616500489492637
18,5.765500674539995
2,1, 1, 1, 0,15, 0.00,15.00,Tuesday
7,-1.1
8,773.8909461974802
9,1.0
10,178.15692317953907
11,1.0
12,178.15692317953907
13,773.8909461974802
14,5.7601243349907869
15,8.047193904009332
16,7.886966042847291
17,-0.14714506102660608
18,5.750778366804891
2,1, 1, 1, 0,15,15.00,30.00,Tuesday
7,-1.1
8,726.941996004965
9,1.0
10,166.40516310952945
11,1.0
12,166.40516310952945
13,726.941996004965
14,5.7232535283278909
15,7.683572082322232
16,7.715185292654496
17,-0.22836161638633713
18,5.7390665491875298
2,1, 1, 1, 0,15,30.00,45.00,Tuesday
7,-1.1
8,611.5649513491846
9,1.0
10,140.8967369711617
11,1.0
12,140.8967369711617
13,611.5649513491846
14,5.6255055105573039
15,6.474905690955372
16,7.29429636990767
17,-0.4871283158473716
18,5.71789125315164
2,1, 1, 1, 0,15,45.00,60.00,Tuesday
7,-1.1
8,502.0061046110028
9,1.0
10,116.57355796743004
11,1.0
12,116.57355796743004
13,502.0061046110028
14,5.534273791455434
15,5.269588911194507
16,6.867097340679209
17,-0.7508844814612417
18,5.6805327517872838
2,1, 1, 1, 0,16, 0.00,15.00,Tuesday
7,-1.1
8,397.3564596057699
9,1.0
10,93.14939272689483
11,1.0
12,93.14939272689483
13,397.3564596057699
14,5.444327845482233
15,4.215373849538009
16,6.443708669748958
17,-0.9479381135355425
18,5.6279843521811039
2,1, 1, 1, 0,16,15.00,30.00,Tuesday
7,-1.1
8,246.0241224001257
9,1.0
10,57.94047897402063
11,1.0
12,57.94047897402063
13,246.0241224001257
14,5.277351790239774
15,2.088987179141646
16,5.780039320020819
17,-1.3331343114149377
18,5.556204834982078
2,1, 1, 1, 0,16,30.00,45.00,Tuesday
7,-1.1
8,190.18037094464638
9,1.0
10,45.38251793443488
11,1.0
12,45.38251793443488
13,190.18037094464638
14,5.210538777463462
15,1.474675090896839
16,5.4671158897908189
17,-1.450646894117824
18,5.474969856721678
2,1, 1, 1, 0,16,45.00,60.00,Tuesday
7,-1.1
8,132.41076891910806
9,1.0
10,32.02625108222755
11,1.0
12,32.02625108222755
13,132.41076891910806
14,5.112428928646034
15,0.6079956350828375
16,5.17933128959055
17,-1.592052222905295
18,5.3915770726804219
2,1, 1, 1, 0,17, 0.00,15.00,Tuesday
7,-1.1
8,72.49471069167912
9,1.0
10,17.762198626050539
11,1.0
12,17.762198626050539
13,72.49471069167912
14,4.9870815097236049
15,-0.6482197620032958
16,4.8485993769416499
17,-1.8729987036651892
18,5.303856822590661
2,1, 1, 1, 0,17,15.00,30.00,Tuesday
7,-1.1
8,0.0
9,0.0
10,0.0
11,0.0
12,0.0
13,0.0
14,4.814280704858847
15,-2.487575303466217
16,4.456069414905869
17,-2.163646235950182
18,5.204659351479052
2,1, 1, 1, 0,17,30.00,45.00,Tuesday
7,-1.1
8,0.0
9,0.0
10,0.0
11,0.0
12,0.0
13,0.0
14,4.763058529669706
15,-2.625930959905208
16,4.353746735515415
17,-2.2427524494842148
18,5.108335751706259
2,1, 1, 1, 0,17,45.00,60.00,Tuesday
7,-1.1
8,0.0
9,0.0
10,0.0
11,0.0
12,0.0
13,0.0
14,4.698430182229547
15,-2.8207495215065609
16,4.292537784691831
17,-2.3363364520901088
18,5.027517180930949
2,1, 1, 1, 0,18, 0.00,15.00,Tuesday
7,-1.25
8,0.0
9,0.0
10,0.0
11,0.0
12,0.0
13,0.0
14,4.645554333804973
15,-2.9680372895598774
16,4.221796389250187
17,-2.490782440293515
18,4.963741193043766
2,1, 1, 1, 0,18,15.00,30.00,Tuesday
7,-1.4
8,0.0
9,0.0
10,0.0
11,0.0
12,0.0
13,0.0
14,4.597911914300471
15,-3.1203422030597465
16,4.165093146817753
17,-2.635650971446694
18,4.912578528388016
2,1, 1, 1, 0,18,30.00,45.00,Tuesday
7,-1.5499999999999999
8,0.0
9,0.0
10,0.0
11,0.0
12,0.0
13,0.0
14,4.554860271252493
15,-3.2721069265753388
16,4.117796985220821
17,-2.7774156477796057
18,4.868937797365941
2,1, 1, 1, 0,18,45.00,60.00,Tuesday
7,-1.7
8,0.0
9,0.0
10,0.0
11,0.0
12,0.0
13,0.0
14,4.5141330231229859
15,-3.4240311793015629
16,4.069256993226645
17,-2.922683962211522
18,4.829308198247702
2,1, 1, 1, 0,19, 0.00,15.00,Tuesday
7,-1.825
8,0.0
9,0.0
10,0.0
11,0.0
12,0.0
13,0.0
14,4.499599019122009
15,-3.27057802547533
16,4.034606464170281
17,-2.9096616764557554
18,4.79549942652789
2,1, 1, 1, 0,19,15.00,30.00,Tuesday
7,-1.9500000000000002
8,0.0
9,0.0
10,0.0
11,0.0
12,0.0
13,0.0
14,4.485516558909094
15,-3.1991549498196369
16,4.01319208390737
17,-2.927027617589715
18,4.769266482530264
2,1, 1, 1, 0,19,30.00,45.00,Tuesday
7,-2.075
8,0.0
9,0.0
10,0.0
11,0.0
12,0.0
13,0.0
14,4.464870884716926
15,-3.2716614635389464
16,3.9891520752909175
17,-3.0179671360654085
18,4.748772843628941
2,1, 1, 1, 0,19,45.00,60.00,Tuesday
7,-2.2
8,0.0
9,0.0
10,0.0
11,0.0
12,0.0
13,0.0
14,4.44852716292
15,-3.245348885103937
16,3.9702230571770658
17,-3.0539182767128638
18,4.730925357957531
2,1, 1, 1, 0,20, 0.00,15.00,Tuesday
7,-1.9250000000000003
8,0.0
9,0.0
10,0.0
11,0.0
12,0.0
13,0.0
14,4.4477281896574178
15,-2.9431325349319596
16,3.981621128286804
17,-2.7792384918147379
18,4.71527768455714
2,1, 1, 1, 0,20,15.00,30.00,Tuesday
7,-1.6500000000000002
8,0.0
9,0.0
10,0.0
11,0.0
12,0.0
13,0.0
14,4.446669226079611
15,-2.644047038289953
16,3.9971891657487506
17,-2.5051744525771939
18,4.701998072377418
2,1, 1, 1, 0,20,30.00,45.00,Tuesday
7,-1.375
8,0.0
9,0.0
10,0.0
11,0.0
12,0.0
13,0.0
14,4.4469522788356079
15,-2.3462746154542488
16,4.01362642479188
17,-2.2311632472799944
18,4.6908412513060588
2,1, 1, 1, 0,20,45.00,60.00,Tuesday
7,-1.1
8,0.0
9,0.0
10,0.0
11,0.0
12,0.0
13,0.0
14,4.4484487762146609
15,-2.0498150368515528
16,4.031356775212771
17,-1.9571713032204912
18,4.681372081739625
2,1, 1, 1, 0,21, 0.00,15.00,Tuesday
7,-1.25
8,0.0
9,0.0
10,0.0
11,0.0
12,0.0
13,0.0
14,4.4076961662440079
15,-2.334875440752525
16,4.000639623465645
17,-2.176141884748972
18,4.667708044370807
2,1, 1, 1, 0,21,15.00,30.00,Tuesday
7,-1.4
8,0.0
9,0.0
10,0.0
11,0.0
12,0.0
13,0.0
14,4.367971322047341
15,-2.5534995303875855
16,3.958277764278364
17,-2.342297456518054
18,4.645355139845983
2,1, 1, 1, 0,21,30.00,45.00,Tuesday
7,-1.5499999999999999
8,0.0
9,0.0
10,0.0
11,0.0
12,0.0
13,0.0
14,4.314555861331016
15,-2.903003431670272
16,3.902758734177553
17,-2.5865731788875907
18,4.612996728906389
2,1, 1, 1, 0,21,45.00,60.00,Tuesday
7,-1.7
8,0.0
9,0.0
10,0.0
11,0.0
12,0.0
13,0.0
14,4.25580469847609
15,-3.360824805893169
16,3.8354761134746129
17,-2.863027278463278
18,4.572299087531381
2,1, 1, 1, 0,22, 0.00,15.00,Tuesday
7,-1.5499999999999999
8,0.0
9,0.0
10,0.0
11,0.0
12,0.0
13,0.0
14,4.267358770883523
15,-2.866210894281834
16,3.824397406826904
17,-2.5618365057704297
18,4.53675398922113
2,1, 1, 1, 0,22,15.00,30.00,Tuesday
7,-1.4
8,0.0
9,0.0
10,0.0
11,0.0
12,0.0
13,0.0
14,4.2695933368838709
15,-2.5312038335592446
16,3.8390026634982066
17,-2.3289505020314325
18,4.514014839120338
2,1, 1, 1, 0,22,30.00,45.00,Tuesday
7,-1.25
8,0.0
9,0.0
10,0.0
11,0.0
12,0.0
13,0.0
14,4.269906425556948
15,-2.30892508974457
16,3.849301219017434
17,-2.1601435085602249
18,4.502091366573527
2,1, 1, 1, 0,22,45.00,60.00,Tuesday
7,-1.1
8,0.0
9,0.0
10,0.0
11,0.0
12,0.0
13,0.0
14,4.274098313246385
15,-2.0225188153547837
16,3.8657588286265538
17,-1.933760549438034
18,4.495866717532036
2,1, 1, 1, 0,23, 0.00,15.00,Tuesday
7,-1.25
8,0.0
9,0.0
10,0.0
11,0.0
12,0.0
13,0.0
14,4.233190651101821
15,-2.325925523863509
16,3.8282556385443629
17,-2.251611939393115
18,4.485666291922594
2,1, 1, 1, 0,23,15.00,30.00,Tuesday
7,-1.4
8,0.0
9,0.0
10,0.0
11,0.0
12,0.0
13,0.0
14,4.196402022155627
15,-2.630404817371026
16,3.771385210234257
17,-2.5706449455518625
18,4.4664473237591519
2,1, 1, 1, 0,23,30.00,45.00,Tuesday
7,-1.5499999999999999
8,0.0
9,0.0
10,0.0
11,0.0
12,0.0
13,0.0
14,4.153577733476591
15,-2.9355751425372209
16,3.714029204365829
17,-2.8893491089826854
18,4.4387218676007669
2,1, 1, 1, 0,23,45.00,60.00,Tuesday
7,-1.7
8,0.0
9,0.0
10,0.0
11,0.0
12,0.0
13,0.0
14,4.108312190666597
15,-3.2410031333895805
16,3.652271420801867
17,-3.2080976147425419
18,4.4050038506675339
2,1, 1, 1, 0,24, 0.00,15.00,Tuesday
7,-1.7
8,0.0
9,0.0
10,0.0
11,0.0
12,0.0
13,0.0
14,4.079804713507815
15,-3.2948502606911589
16,3.6141685717734619
17,-3.2661305284881338
18,4.370280776942452
2,1, 1, 1, 0,24,15.00,30.00,Tuesday
7,-1.7
8,0.0
9,0.0
10,0.0
11,0.0
12,0.0
13,0.0
14,4.048277035187523
15,-3.3494053594599468
16,3.581372375983392
17,-3.327765856457404
18,4.337398406240128
2,1, 1, 1, 0,24,30.00,45.00,Tuesday
7,-1.7
8,0.0
9,0.0
10,0.0
11,0.0
12,0.0
13,0.0
14,4.017515154069521
15,-3.4038265131055125
16,3.547862662589864
17,-3.3896032422143209
18,4.3065310497613
2,1, 1, 1, 0,24,45.00,60.00,Tuesday
7,-1.7
8,0.0
9,0.0
10,0.0
11,0.0
12,0.0
13,0.0
14,3.9873627215889848
15,-3.4582502507101866
16,3.5150249760671388
17,-3.4513339700159806
18,4.27690354597164
End of Data
 Number of Records Written=        1152
