Program Version,EnergyPlus, Version 9.5.0-de239b2e5f, YMD=2023.02.16 18:16
1,5,Environment Title[],Latitude[deg],Longitude[deg],Time Zone[],Elevation[m]
2,8,Day of Simulation[],Month[],Day of Month[],DST Indicator[1=yes 0=no],Hour[],StartMinute[],EndMinute[],DayType
3,5,Cumulative Day of Simulation[],Month[],Day of Month[],DST Indicator[1=yes 0=no],DayType  ! When Daily Report Variables Requested
4,2,Cumulative Days of Simulation[],Month[]  ! When Monthly Report Variables Requested
5,1,Cumulative Days of Simulation[] ! When Run Period Report Variables Requested
6,1,Calendar Year of Simulation[] ! When Annual Report Variables Requested
7,1,Environment,Site Outdoor Air Drybulb Temperature [C] !TimeStep
8,1,ZONE ONE,Zone Windows Total Transmitted Solar Radiation Rate [W] !TimeStep
9,1,ZN001:WALL001,Surface Outside Face Sunlit Fraction [] !TimeStep
10,1,ZN001:WALL001,Surface Outside Face Incident Solar Radiation Rate per Area [W/m2] !TimeStep
11,1,ZN001:WALL001:WIN001,Surface Outside Face Sunlit Fraction [] !TimeStep
12,1,ZN001:WALL001:WIN001,Surface Outside Face Incident Solar Radiation Rate per Area [W/m2] !TimeStep
13,1,ZN001:WALL001:WIN001,Surface Window Transmitted Solar Radiation Rate [W] !TimeStep
14,1,ZN001:WALL001,Surface Inside Face Temperature [C] !TimeStep
15,1,ZN001:WALL001,Surface Outside Face Temperature [C] !TimeStep
16,1,ZN001:WALL001:WIN001,Surface Inside Face Temperature [C] !TimeStep
17,1,ZN001:WALL001:WIN001,Surface Outside Face Temperature [C] !TimeStep
18,1,ZONE ONE,Zone Mean Air Temperature [C] !TimeStep
End of Data Dictionary
1,RUN PERIOD 1,  41.98, -87.92,  -6.00, 201.00
2,1, 1, 1, 0, 1, 0.00,15.00,Tuesday
7,-4.324999999999999
8,0.0
9,0.0
10,0.0
11,0.0
12,0.0
13,0.0
14,2.565293136251514
15,-5.957185944011026
16,1.9800334725739504
17,-5.792086924353384
18,2.953023683570193
2,1, 1, 1, 0, 1,15.00,30.00,Tuesday
7,-6.949999999999999
8,0.0
9,0.0
10,0.0
11,0.0
12,0.0
13,0.0
14,2.396607559359369
15,-8.424977827377595
16,1.647085525427542
17,-8.095503175276577
18,2.8770910330635397
2,1, 1, 1, 0, 1,30.00,45.00,Tuesday
7,-9.575
8,0.0
9,0.0
10,0.0
11,0.0
12,0.0
13,0.0
14,2.21098891693026
15,-10.900815820186108
16,1.3114233178816904
17,-10.406371587830677
18,2.7724601055385027
2,1, 1, 1, 0, 1,45.00,60.00,Tuesday
7,-12.2
8,0.0
9,0.0
10,0.0
11,0.0
12,0.0
13,0.0
14,2.0116744343647396
15,-13.383210444912458
16,0.9632364647746385
17,-12.7359875981482
18,2.6470507625403578
2,1, 1, 1, 0, 2, 0.00,15.00,Tuesday
7,-12.075
8,0.0
9,0.0
10,0.0
11,0.0
12,0.0
13,0.0
14,1.9627113550657467
15,-13.184484304700608
16,0.8668213380108796
17,-12.592519485981143
18,2.532263246633868
2,1, 1, 1, 0, 2,15.00,30.00,Tuesday
7,-11.95
8,0.0
9,0.0
10,0.0
11,0.0
12,0.0
13,0.0
14,1.8988152512103432
15,-13.007078818769886
16,0.8221881197287075
17,-12.408436283498077
18,2.444272354399163
2,1, 1, 1, 0, 2,30.00,45.00,Tuesday
7,-11.825
8,0.0
9,0.0
10,0.0
11,0.0
12,0.0
13,0.0
14,1.8496051635890099
15,-12.8285711845223
16,0.7819056461729019
17,-12.233372637335947
18,2.3798296403080907
2,1, 1, 1, 0, 2,45.00,60.00,Tuesday
7,-11.7
8,0.0
9,0.0
10,0.0
11,0.0
12,0.0
13,0.0
14,1.810365104669638
15,-12.650126253537906
16,0.753454245215778
17,-12.057434800081865
18,2.3299866563109026
2,1, 1, 1, 0, 3, 0.00,15.00,Tuesday
7,-11.549999999999999
8,0.0
9,0.0
10,0.0
11,0.0
12,0.0
13,0.0
14,1.7721332392958007
15,-12.525235676194314
16,0.7292612401998895
17,-11.930331463670484
18,2.2867724920581047
2,1, 1, 1, 0, 3,15.00,30.00,Tuesday
7,-11.399999999999999
8,0.0
9,0.0
10,0.0
11,0.0
12,0.0
13,0.0
14,1.7370373368992803
15,-12.401758530670789
16,0.7055289882327998
17,-11.797080961747838
18,2.2459458797564064
2,1, 1, 1, 0, 3,30.00,45.00,Tuesday
7,-11.25
8,0.0
9,0.0
10,0.0
11,0.0
12,0.0
13,0.0
14,1.7027994579846242
15,-12.279865118774377
16,0.6835691975704776
17,-11.66393633720054
18,2.20611843412426
2,1, 1, 1, 0, 3,45.00,60.00,Tuesday
7,-11.1
8,0.0
9,0.0
10,0.0
11,0.0
12,0.0
13,0.0
14,1.6689878618754084
15,-12.159618494363077
16,0.6622120548888688
17,-11.531467342603265
18,2.167028689607444
2,1, 1, 1, 0, 4, 0.00,15.00,Tuesday
7,-11.1
8,0.0
9,0.0
10,0.0
11,0.0
12,0.0
13,0.0
14,1.6319629853719314
15,-12.129303489743773
16,0.6265288718507236
17,-11.519696160880017
18,2.1282864526551887
2,1, 1, 1, 0, 4,15.00,30.00,Tuesday
7,-11.1
8,0.0
9,0.0
10,0.0
11,0.0
12,0.0
13,0.0
14,1.5953405593698107
15,-12.10015151244269
16,0.5899363221520844
17,-11.51698258580717
18,2.089697220705899
2,1, 1, 1, 0, 4,30.00,45.00,Tuesday
7,-11.1
8,0.0
9,0.0
10,0.0
11,0.0
12,0.0
13,0.0
14,1.5587959790594579
15,-12.072618394319309
16,0.5559156349618206
17,-11.511993901313304
18,2.0511800671102007
2,1, 1, 1, 0, 4,45.00,60.00,Tuesday
7,-11.1
8,0.0
9,0.0
10,0.0
11,0.0
12,0.0
13,0.0
14,1.522285716334898
15,-12.046574764266597
16,0.5216906558570145
17,-11.506813980993343
18,2.012734254657333
2,1, 1, 1, 0, 5, 0.00,15.00,Tuesday
7,-10.975
8,0.0
9,0.0
10,0.0
11,0.0
12,0.0
13,0.0
14,1.492152996705148
15,-11.924302625942094
16,0.5020051215969943
17,-11.39719845106157
18,1.9751656074213282
2,1, 1, 1, 0, 5,15.00,30.00,Tuesday
7,-10.85
8,0.0
9,0.0
10,0.0
11,0.0
12,0.0
13,0.0
14,1.4611046337944509
15,-11.802161936149995
16,0.4817266683044181
17,-11.284476031587701
18,1.9388274236262473
2,1, 1, 1, 0, 5,30.00,45.00,Tuesday
7,-10.725
8,0.0
9,0.0
10,0.0
11,0.0
12,0.0
13,0.0
14,1.4309300599273008
15,-11.679966768587584
16,0.46158383907334157
17,-11.171532338481484
18,1.903538729948981
2,1, 1, 1, 0, 5,45.00,60.00,Tuesday
7,-10.6
8,0.0
9,0.0
10,0.0
11,0.0
12,0.0
13,0.0
14,1.401417876391045
15,-11.557786595038465
16,0.4421615458004453
17,-11.058517292483316
18,1.8690257206537604
2,1, 1, 1, 0, 6, 0.00,15.00,Tuesday
7,-10.6
8,0.0
9,0.0
10,0.0
11,0.0
12,0.0
13,0.0
14,1.3638167848127339
15,-11.5585362240365
16,0.4076015483478841
17,-11.056670439676794
18,1.8339227600134556
2,1, 1, 1, 0, 6,15.00,30.00,Tuesday
7,-10.6
8,0.0
9,0.0
10,0.0
11,0.0
12,0.0
13,0.0
14,1.3278145721710415
15,-11.559173568396794
16,0.3730890889998477
17,-11.058270337742556
18,1.7975987609789377
2,1, 1, 1, 0, 6,30.00,45.00,Tuesday
7,-10.6
8,0.0
9,0.0
10,0.0
11,0.0
12,0.0
13,0.0
14,1.2912012270148206
15,-11.559889796635016
16,0.339047975996948
17,-11.060717857839052
18,1.7603065260785052
2,1, 1, 1, 0, 6,45.00,60.00,Tuesday
7,-10.6
8,0.0
9,0.0
10,0.0
11,0.0
12,0.0
13,0.0
14,1.2542797473260393
15,-11.560601074090526
16,0.3045612177940029
17,-11.063469278322885
18,1.7224940658672914
2,1, 1, 1, 0, 7, 0.00,15.00,Tuesday
7,-10.6
8,0.0
9,0.0
10,0.0
11,0.0
12,0.0
13,0.0
14,1.2195654297151946
15,-11.535616724280353
16,0.2714133737388238
17,-11.05949590844989
18,1.6848892191859204
2,1, 1, 1, 0, 7,15.00,30.00,Tuesday
7,-10.6
8,0.0
9,0.0
10,0.0
11,0.0
12,0.0
13,0.0
14,1.1846982912694433
15,-11.511924459148709
16,0.2390872498260137
17,-11.053965035988086
18,1.6478522477453775
2,1, 1, 1, 0, 7,30.00,45.00,Tuesday
7,-10.6
8,0.0
9,0.0
10,0.0
11,0.0
12,0.0
13,0.0
14,1.150117050317047
15,-11.489433238770197
16,0.20671621229860194
17,-11.048248778248422
18,1.6113380033855547
2,1, 1, 1, 0, 7,45.00,60.00,Tuesday
7,-10.6
8,0.0
9,0.0
10,0.0
11,0.0
12,0.0
13,0.0
14,1.115824355100242
15,-11.468072499394602
16,0.1746071695657747
17,-11.042614044838502
18,1.5751982116691706
2,1, 1, 1, 0, 8, 0.00,15.00,Tuesday
7,-10.45
8,0.0
9,0.0
10,0.0
11,0.0
12,0.0
13,0.0
14,1.0804859938655925
15,-11.419889926528584
16,0.14842290497244904
17,-11.002113208786796
18,1.538758922314844
2,1, 1, 1, 0, 8,15.00,30.00,Tuesday
7,-10.3
8,71.56792871975249
9,1.0
10,22.819555959623899
11,1.0
12,22.819555959623899
13,71.56792871975249
14,1.1483123709497714
15,-9.747093547079582
16,0.563758019835177
17,-10.637177788278223
18,1.5165397954772305
2,1, 1, 1, 0, 8,30.00,45.00,Tuesday
7,-10.15
8,354.0299290602728
9,1.0
10,109.75755355442667
11,1.0
12,109.75755355442667
13,354.0299290602728
14,1.4964283125920306
15,-3.3862691793151824
16,2.3590598144169236
17,-9.313074272890049
18,1.5471023784064908
2,1, 1, 1, 0, 8,45.00,60.00,Tuesday
7,-10.0
8,650.8026061160458
9,1.0
10,195.8764694434918
11,1.0
12,195.8764694434918
13,650.8026061160458
14,1.9213077409449365
15,3.0998953340538097
16,4.02250289076818
17,-8.007067693997954
18,1.6403860166192553
2,1, 1, 1, 0, 9, 0.00,15.00,Tuesday
7,-9.725
8,953.3043628211269
9,1.0
10,278.97248314719988
11,1.0
12,278.97248314719988
13,953.3043628211269
14,2.2700631542862119
15,8.285742508692979
16,5.537265448232176
17,-6.880173090859557
18,1.787022988238278
2,1, 1, 1, 0, 9,15.00,30.00,Tuesday
7,-9.45
8,1278.5481108613147
9,1.0
10,364.91995730569456
11,1.0
12,364.91995730569456
13,1278.5481108613147
14,2.654038849769105
15,13.363395450626863
16,7.045264927558378
17,-5.775549925732662
18,1.9730577164898909
2,1, 1, 1, 0, 9,30.00,45.00,Tuesday
7,-9.175
8,1501.6689651177185
9,1.0
10,420.35879993239237
11,1.0
12,420.35879993239237
13,1501.6689651177185
14,2.9063555606644968
15,16.122387443030836
16,8.057317064821462
17,-5.112900745005163
18,2.178816337907307
2,1, 1, 1, 0, 9,45.00,60.00,Tuesday
7,-8.9
8,1735.1383193393602
9,1.0
10,478.00138373643099
11,1.0
12,478.00138373643099
13,1735.1383193393602
14,3.2065453969344035
15,19.11763533711586
16,9.064065895328327
17,-4.41952458415949
18,2.396975300074115
2,1, 1, 1, 0,10, 0.00,15.00,Tuesday
7,-8.350000000000002
8,1975.0591100537159
9,1.0
10,536.9185644770597
11,1.0
12,536.9185644770597
13,1975.0591100537159
14,3.4468097316392205
15,20.236874309091229
16,10.105025274005584
17,-3.61794294730106
18,2.631851992850264
2,1, 1, 1, 0,10,15.00,30.00,Tuesday
7,-7.800000000000001
8,2223.9470947223846
9,1.0
10,598.0969199229219
11,1.0
12,598.0969199229219
13,2223.9470947223846
14,3.7128308848011986
15,21.491304280087119
16,11.174488314820849
17,-2.83791002789485
18,2.8809092175917248
2,1, 1, 1, 0,10,30.00,45.00,Tuesday
7,-7.25
8,2391.940481956653
9,1.0
10,637.6133352894237
11,1.0
12,637.6133352894237
13,2391.940481956653
14,3.910321557896079
15,21.552195366117187
16,11.932673605901528
17,-2.3050074072881445
18,3.129888122140128
2,1, 1, 1, 0,10,45.00,60.00,Tuesday
7,-6.7
8,2557.310342406259
9,1.0
10,676.6412284283772
11,1.0
12,676.6412284283772
13,2557.310342406259
14,4.123722225588528
15,21.71332970477394
16,12.659912848451598
17,-1.7490702175927027
18,3.3702953909313568
2,1, 1, 1, 0,11, 0.00,15.00,Tuesday
7,-6.275
8,2719.427216426026
9,1.0
10,715.0112779846514
11,1.0
12,715.0112779846514
13,2719.427216426026
14,4.413353042650882
15,23.810766459799156
16,13.389880346501514
17,-1.0180797588591873
18,3.605450998035287
2,1, 1, 1, 0,11,15.00,30.00,Tuesday
7,-5.85
8,2877.417086129279
9,1.0
10,752.5077794605232
11,1.0
12,752.5077794605232
13,2877.417086129279
14,4.6884999689205089
15,25.74547223308358
16,14.107182774378544
17,-0.2996221257402567
18,3.840182775002206
2,1, 1, 1, 0,11,30.00,45.00,Tuesday
7,-5.425
8,2835.5349808371727
9,1.0
10,742.5988714321785
11,1.0
12,742.5988714321785
13,2835.5349808371727
14,4.839944918423211
15,25.59706210103645
16,14.177177267644538
17,-0.00012807168894823917
18,4.059481853483435
2,1, 1, 1, 0,11,45.00,60.00,Tuesday
7,-5.0
8,2772.923910988253
9,1.0
10,727.8169025450712
11,1.0
12,727.8169025450712
13,2772.923910988253
14,4.987005046195437
15,25.367509803500125
16,14.150185758628027
17,0.26724355978774386
18,4.252980034000258
2,1, 1, 1, 0,12, 0.00,15.00,Tuesday
7,-4.575
8,2664.822954671648
9,1.0
10,700.3759009170325
11,1.0
12,700.3759009170325
13,2664.822954671648
14,5.084274460198579
15,24.624586383595273
16,13.938673708835382
17,0.4705883400644666
18,4.415795007785939
2,1, 1, 1, 0,12,15.00,30.00,Tuesday
7,-4.15
8,2580.894828475442
9,1.0
10,681.6705029034473
11,1.0
12,681.6705029034473
13,2580.894828475442
14,5.200386955938216
15,24.293861079192735
16,13.834454297710863
17,0.7532302686893218
18,4.555007878959209
2,1, 1, 1, 0,12,30.00,45.00,Tuesday
7,-3.7249999999999998
8,2259.3077124563117
9,1.0
10,602.01865277251
11,1.0
12,602.01865277251
13,2259.3077124563117
14,5.109120912653035
15,21.265231119137874
16,12.880863773109127
17,0.5367739654561774
18,4.653619791289154
2,1, 1, 1, 0,12,45.00,60.00,Tuesday
7,-3.3
8,1841.4287184027517
9,1.0
10,493.55004396206007
11,1.0
12,493.55004396206007
13,1841.4287184027517
14,4.918295159516687
15,17.08626610028113
16,11.413721780062986
17,0.030082821933547167
18,4.695541744459304
2,1, 1, 1, 0,13, 0.00,15.00,Tuesday
7,-3.0249999999999996
8,1510.1870283450449
9,1.0
10,412.335026418112
11,1.0
12,412.335026418112
13,1510.1870283450449
14,4.790586488163152
15,14.241173759147888
16,10.267922303083993
17,-0.29917346893375909
18,4.687477618093296
2,1, 1, 1, 0,13,15.00,30.00,Tuesday
7,-2.75
8,1097.5186598189753
9,1.0
10,305.94037763660148
11,1.0
12,305.94037763660148
13,1097.5186598189753
14,4.533905833999203
15,10.065907465638056
16,8.696407466388962
17,-0.8743564216616733
18,4.631884484677555
2,1, 1, 1, 0,13,30.00,45.00,Tuesday
7,-2.475
8,997.8347210574955
9,1.0
10,281.0763483922329
11,1.0
12,281.0763483922329
13,997.8347210574955
14,4.5115546253528759
15,9.556270644304047
16,8.296865490378878
17,-0.7481627560469519
18,4.564762623438958
2,1, 1, 1, 0,13,45.00,60.00,Tuesday
7,-2.2
8,900.1994191962868
9,1.0
10,256.7721209415886
11,1.0
12,256.7721209415886
13,900.1994191962868
14,4.474694687007723
15,8.948159840224877
16,7.950641133126453
17,-0.5995574084116697
18,4.510085550030308
2,1, 1, 1, 0,14, 0.00,15.00,Tuesday
7,-1.9250000000000003
8,732.8655907144981
9,1.0
10,210.73276284570657
11,1.0
12,210.73276284570657
13,732.8655907144981
14,4.366069693820786
15,7.398848852492435
16,7.232977467764613
17,-0.7009995758127161
18,4.4622552366115129
2,1, 1, 1, 0,14,15.00,30.00,Tuesday
7,-1.6500000000000002
8,646.3774883140063
9,1.0
10,189.38488290342594
11,1.0
12,189.38488290342594
13,646.3774883140063
14,4.344569908314692
15,6.995151214949307
16,6.89198088043122
17,-0.5866134994635104
18,4.4210912140743929
2,1, 1, 1, 0,14,30.00,45.00,Tuesday
7,-1.375
8,617.9858986324632
9,1.0
10,179.3940297802914
11,1.0
12,179.3940297802914
13,617.9858986324632
14,4.341828883456962
15,7.114824775809943
16,6.746460533797972
17,-0.3646739717207197
18,4.388708910867417
2,1, 1, 1, 0,14,45.00,60.00,Tuesday
7,-1.1
8,588.6932238625436
9,1.0
10,169.43349014176136
11,1.0
12,169.43349014176136
13,588.6932238625436
14,4.338524414891053
15,7.212578028866409
16,6.5999295330293539
17,-0.14313428622068614
18,4.364174510046459
2,1, 1, 1, 0,15, 0.00,15.00,Tuesday
7,-1.1
8,618.6771475466255
9,1.0
10,178.15692317953907
11,1.0
12,178.15692317953907
13,618.6771475466255
14,4.3845248088770119
15,8.028487575877929
16,6.7430646124419699
17,-0.019099411819070157
18,4.3502801972165578
2,1, 1, 1, 0,15,15.00,30.00,Tuesday
7,-1.1
8,581.0506986351386
9,1.0
10,166.40516310952945
11,1.0
12,166.40516310952945
13,581.0506986351386
14,4.351399988403797
15,7.664356079513577
16,6.552895960892215
17,-0.10836048462351755
18,4.339405570661584
2,1, 1, 1, 0,15,30.00,45.00,Tuesday
7,-1.1
8,487.62380365139259
9,1.0
10,140.8967369711617
11,1.0
12,140.8967369711617
13,487.62380365139259
14,4.257935046274041
15,6.453977127875624
16,6.109172895649408
17,-0.38403520424043338
18,4.319399887097602
2,1, 1, 1, 0,15,45.00,60.00,Tuesday
7,-1.1
8,399.16345704405486
9,1.0
10,116.57355796743004
11,1.0
12,116.57355796743004
13,399.16345704405486
14,4.167597217347991
15,5.247376692496172
16,5.660602389351368
17,-0.6645927732561177
18,4.284230632496126
2,1, 1, 1, 0,16, 0.00,15.00,Tuesday
7,-1.1
8,315.01856693619978
9,1.0
10,93.14939272689483
11,1.0
12,93.14939272689483
13,315.01856693619978
14,4.082588027322085
15,4.192082487987175
16,5.217090413867993
17,-0.8785283199191554
18,4.234857825608566
2,1, 1, 1, 0,16,15.00,30.00,Tuesday
7,-1.1
8,194.46754305814083
9,1.0
10,57.94047897402063
11,1.0
12,57.94047897402063
13,194.46754305814083
14,3.9228928746371518
15,2.063595165485696
16,4.51937605321632
17,-1.2969679559686256
18,4.167581575902135
2,1, 1, 1, 0,16,30.00,45.00,Tuesday
7,-1.1
8,149.82451960460407
9,1.0
10,45.38251793443488
11,1.0
12,45.38251793443488
13,149.82451960460407
14,3.8602454903347227
15,1.447111268442891
16,4.202970116949132
17,-1.4283155424609504
18,4.091621951093682
2,1, 1, 1, 0,16,45.00,60.00,Tuesday
7,-1.1
8,104.00572991011612
9,1.0
10,32.02625108222755
11,1.0
12,32.02625108222755
13,104.00572991011612
14,3.7670212300125058
15,0.5776845551329586
16,3.886367626982633
17,-1.58758517951253
18,4.014264921127126
2,1, 1, 1, 0,17, 0.00,15.00,Tuesday
7,-1.1
8,56.8254897678188
9,1.0
10,17.762198626050539
11,1.0
12,17.762198626050539
13,56.8254897678188
14,3.6468457691314799
15,-0.6822209377633289
16,3.536031316296828
17,-1.8881969957574257
18,3.9326623280880739
2,1, 1, 1, 0,17,15.00,30.00,Tuesday
7,-1.1
8,0.0
9,0.0
10,0.0
11,0.0
12,0.0
13,0.0
14,3.479967492401949
15,-2.5231654068110695
16,3.1162550327369447
17,-2.205928660257939
18,3.8368829254302394
2,1, 1, 1, 0,17,30.00,45.00,Tuesday
7,-1.1
8,0.0
9,0.0
10,0.0
11,0.0
12,0.0
13,0.0
14,3.4316033840775548
15,-2.663128828481877
16,3.0183247250628826
17,-2.286158465311871
18,3.74205942387692
2,1, 1, 1, 0,17,45.00,60.00,Tuesday
7,-1.1
8,0.0
9,0.0
10,0.0
11,0.0
12,0.0
13,0.0
14,3.369527005169995
15,-2.8609440021466496
16,2.9589468402180616
17,-2.381129986742053
18,3.6619552436589815
2,1, 1, 1, 0,18, 0.00,15.00,Tuesday
7,-1.25
8,0.0
9,0.0
10,0.0
11,0.0
12,0.0
13,0.0
14,3.3190642347933565
15,-3.0078741385434077
16,2.8895057389100886
17,-2.534107982602791
18,3.5989734226923826
2,1, 1, 1, 0,18,15.00,30.00,Tuesday
7,-1.4
8,0.0
9,0.0
10,0.0
11,0.0
12,0.0
13,0.0
14,3.273851277210122
15,-3.1601797319174707
16,2.8380705782581119
17,-2.6738229159610684
18,3.5490817276098625
2,1, 1, 1, 0,18,30.00,45.00,Tuesday
7,-1.5499999999999999
8,0.0
9,0.0
10,0.0
11,0.0
12,0.0
13,0.0
14,3.234193275830325
15,-3.3118893253813246
16,2.78684983510027
17,-2.8180511625168949
18,3.5073421629454595
2,1, 1, 1, 0,18,45.00,60.00,Tuesday
7,-1.7
8,0.0
9,0.0
10,0.0
11,0.0
12,0.0
13,0.0
14,3.196054681719798
15,-3.4638332415822146
16,2.7393451509473154
17,-2.9616324439225538
18,3.4700957962160277
2,1, 1, 1, 0,19, 0.00,15.00,Tuesday
7,-1.825
8,0.0
9,0.0
10,0.0
11,0.0
12,0.0
13,0.0
14,3.185013015643862
15,-3.3058097977826508
16,2.708549750326938
17,-2.9466224157725948
18,3.4389400132674265
2,1, 1, 1, 0,19,15.00,30.00,Tuesday
7,-1.9500000000000002
8,0.0
9,0.0
10,0.0
11,0.0
12,0.0
13,0.0
14,3.1735343440173189
15,-3.2303777291285464
16,2.686947808920081
17,-2.960783435793644
18,3.4154138183783147
2,1, 1, 1, 0,19,30.00,45.00,Tuesday
7,-2.075
8,0.0
9,0.0
10,0.0
11,0.0
12,0.0
13,0.0
14,3.157354452685033
15,-3.301754985920776
16,2.6679017632230854
17,-3.049966214833148
18,3.3978279055175046
2,1, 1, 1, 0,19,45.00,60.00,Tuesday
7,-2.2
8,0.0
9,0.0
10,0.0
11,0.0
12,0.0
13,0.0
14,3.144534598044816
15,-3.271937739155699
16,2.6526822008133879
17,-3.0832426070808198
18,3.3831728195732895
2,1, 1, 1, 0,20, 0.00,15.00,Tuesday
7,-1.9250000000000003
8,0.0
9,0.0
10,0.0
11,0.0
12,0.0
13,0.0
14,3.147235132464562
15,-2.9688332193292457
16,2.6717202587213366
17,-2.8105152959564068
18,3.3708869893759538
2,1, 1, 1, 0,20,15.00,30.00,Tuesday
7,-1.6500000000000002
8,0.0
9,0.0
10,0.0
11,0.0
12,0.0
13,0.0
14,3.1499593609916207
15,-2.668940352934135
16,2.6945347853128966
17,-2.5381121587007557
18,3.361041498893243
2,1, 1, 1, 0,20,30.00,45.00,Tuesday
7,-1.375
8,0.0
9,0.0
10,0.0
11,0.0
12,0.0
13,0.0
14,3.153949745468658
15,-2.3704109005028495
16,2.7183390767239645
17,-2.2656774025529105
18,3.353354099714608
2,1, 1, 1, 0,20,45.00,60.00,Tuesday
7,-1.1
8,0.0
9,0.0
10,0.0
11,0.0
12,0.0
13,0.0
14,3.1591548582883406
15,-2.0732277205497979
16,2.7434272071733405
17,-1.9931876593833522
18,3.3473794601780115
2,1, 1, 1, 0,21, 0.00,15.00,Tuesday
7,-1.25
8,0.0
9,0.0
10,0.0
11,0.0
12,0.0
13,0.0
14,3.1215521437955515
15,-2.3619977950205159
16,2.7123096089712819
17,-2.2132795444957198
18,3.3373890929526657
2,1, 1, 1, 0,21,15.00,30.00,Tuesday
7,-1.4
8,0.0
9,0.0
10,0.0
11,0.0
12,0.0
13,0.0
14,3.0831798819508084
15,-2.5826064189032529
16,2.6703411809606907
17,-2.3792488773228799
18,3.318707512558139
2,1, 1, 1, 0,21,30.00,45.00,Tuesday
7,-1.5499999999999999
8,0.0
9,0.0
10,0.0
11,0.0
12,0.0
13,0.0
14,3.032048580743579
15,-2.936900757955794
16,2.6143621872492419
17,-2.625280530411544
18,3.2898531036250424
2,1, 1, 1, 0,21,45.00,60.00,Tuesday
7,-1.7
8,0.0
9,0.0
10,0.0
11,0.0
12,0.0
13,0.0
14,2.9755452140178648
15,-3.400238940920248
16,2.5461760129953747
17,-2.9025727902564428
18,3.252423044778031
2,1, 1, 1, 0,22, 0.00,15.00,Tuesday
7,-1.5499999999999999
8,0.0
9,0.0
10,0.0
11,0.0
12,0.0
13,0.0
14,2.9907255814498208
15,-2.8991002599638104
16,2.542940038767881
17,-2.6011742911537114
18,3.219819518812571
2,1, 1, 1, 0,22,15.00,30.00,Tuesday
7,-1.4
8,0.0
9,0.0
10,0.0
11,0.0
12,0.0
13,0.0
14,2.997255704679975
15,-2.5596510913673145
16,2.5643751690890896
17,-2.3668566588073647
18,3.199846856024667
2,1, 1, 1, 0,22,30.00,45.00,Tuesday
7,-1.25
8,0.0
9,0.0
10,0.0
11,0.0
12,0.0
13,0.0
14,3.0014944612714316
15,-2.335396100175913
16,2.580613144305346
17,-2.1916393540792
18,3.190748434030043
2,1, 1, 1, 0,22,45.00,60.00,Tuesday
7,-1.1
8,0.0
9,0.0
10,0.0
11,0.0
12,0.0
13,0.0
14,3.0095319434491625
15,-2.0454123463600588
16,2.6040713551216188
17,-1.969732247241609
18,3.1875835907256917
2,1, 1, 1, 0,23, 0.00,15.00,Tuesday
7,-1.25
8,0.0
9,0.0
10,0.0
11,0.0
12,0.0
13,0.0
14,2.9728001891930555
15,-2.3489510966000477
16,2.565000371140684
17,-2.2842432194736377
18,3.180955806111362
2,1, 1, 1, 0,23,15.00,30.00,Tuesday
7,-1.4
8,0.0
9,0.0
10,0.0
11,0.0
12,0.0
13,0.0
14,2.9373399863700646
15,-2.6534804187164546
16,2.507360816766891
17,-2.600464426972792
18,3.1655069424992505
2,1, 1, 1, 0,23,30.00,45.00,Tuesday
7,-1.5499999999999999
8,0.0
9,0.0
10,0.0
11,0.0
12,0.0
13,0.0
14,2.8973356921448838
15,-2.9585687606259585
16,2.4483086653825696
17,-2.9164548853117369
18,3.1414268468159127
2,1, 1, 1, 0,23,45.00,60.00,Tuesday
7,-1.7
8,0.0
9,0.0
10,0.0
11,0.0
12,0.0
13,0.0
14,2.8548211675020589
15,-3.2639713905524334
16,2.3854485759135288
17,-3.232505138137526
18,3.111125749515423
2,1, 1, 1, 0,24, 0.00,15.00,Tuesday
7,-1.7
8,0.0
9,0.0
10,0.0
11,0.0
12,0.0
13,0.0
14,2.8294246041738115
15,-3.3177175690715678
16,2.349644376632966
17,-3.290301593257027
18,3.0795851727759917
2,1, 1, 1, 0,24,15.00,30.00,Tuesday
7,-1.7
8,0.0
9,0.0
10,0.0
11,0.0
12,0.0
13,0.0
14,2.8010043612928299
15,-3.372220866519337
16,2.319284752845192
17,-3.351409826575093
18,3.0497359945266528
2,1, 1, 1, 0,24,30.00,45.00,Tuesday
7,-1.7
8,0.0
9,0.0
10,0.0
11,0.0
12,0.0
13,0.0
14,2.7732528074611926
15,-3.4265913891371606
16,2.2881717708270346
17,-3.412742738331758
18,3.0218511165310066
2,1, 1, 1, 0,24,45.00,60.00,Tuesday
7,-1.7
8,0.0
9,0.0
10,0.0
11,0.0
12,0.0
13,0.0
14,2.746072086381523
15,-3.480962917870763
16,2.257679213590734
17,-3.4739672900302596
18,2.9952115203700799
End of Data
 Number of Records Written=        1152
