Program Version,EnergyPlus, Version 9.5.0-de239b2e5f, YMD=2023.02.16 18:16
1,5,Environment Title[],Latitude[deg],Longitude[deg],Time Zone[],Elevation[m]
2,8,Day of Simulation[],Month[],Day of Month[],DST Indicator[1=yes 0=no],Hour[],StartMinute[],EndMinute[],DayType
3,5,Cumulative Day of Simulation[],Month[],Day of Month[],DST Indicator[1=yes 0=no],DayType  ! When Daily Report Variables Requested
4,2,Cumulative Days of Simulation[],Month[]  ! When Monthly Report Variables Requested
5,1,Cumulative Days of Simulation[] ! When Run Period Report Variables Requested
6,1,Calendar Year of Simulation[] ! When Annual Report Variables Requested
7,1,Environment,Site Outdoor Air Drybulb Temperature [C] !TimeStep
8,1,ZONE ONE,Zone Windows Total Transmitted Solar Radiation Rate [W] !TimeStep
9,1,ZN001:WALL001,Surface Outside Face Sunlit Fraction [] !TimeStep
10,1,ZN001:WALL001,Surface Outside Face Incident Solar Radiation Rate per Area [W/m2] !TimeStep
11,1,ZN001:WALL001:WIN001,Surface Outside Face Sunlit Fraction [] !TimeStep
12,1,ZN001:WALL001:WIN001,Surface Outside Face Incident Solar Radiation Rate per Area [W/m2] !TimeStep
13,1,ZN001:WALL001:WIN001,Surface Window Transmitted Solar Radiation Rate [W] !TimeStep
14,1,ZN001:WALL001,Surface Inside Face Temperature [C] !TimeStep
15,1,ZN001:WALL001,Surface Outside Face Temperature [C] !TimeStep
16,1,ZN001:WALL001:WIN001,Surface Inside Face Temperature [C] !TimeStep
17,1,ZN001:WALL001:WIN001,Surface Outside Face Temperature [C] !TimeStep
18,1,ZONE ONE,Zone Mean Air Temperature [C] !TimeStep
End of Data Dictionary
1,RUN PERIOD 1,  41.98, -87.92,  -6.00, 201.00
2,1, 1, 1, 0, 1, 0.00,15.00,Tuesday
7,-4.324999999999999
8,0.0
9,0.0
10,0.0
11,0.0
12,0.0
13,0.0
14,4.718873290557945
15,-5.9179514205340679
16,3.9087426066956825
17,-5.56191429842454
18,5.166501960212265
2,1, 1, 1, 0, 1,15.00,30.00,Tuesday
7,-6.949999999999999
8,0.0
9,0.0
10,0.0
11,0.0
12,0.0
13,0.0
14,4.547147969174537
15,-8.385421793325996
16,3.5605929207227975
17,-7.851473901210056
18,5.083569504736281
2,1, 1, 1, 0, 1,30.00,45.00,Tuesday
7,-9.575
8,0.0
9,0.0
10,0.0
11,0.0
12,0.0
13,0.0
14,4.357999223167845
15,-10.860819320323639
16,3.2098597497667926
17,-10.158266540098112
18,4.972298127998946
2,1, 1, 1, 0, 1,45.00,60.00,Tuesday
7,-12.2
8,0.0
9,0.0
10,0.0
11,0.0
12,0.0
13,0.0
14,4.154920912784795
15,-13.34279555968177
16,2.843202139441985
17,-12.464486021073526
18,4.8408664508247549
2,1, 1, 1, 0, 2, 0.00,15.00,Tuesday
7,-12.075
8,0.0
9,0.0
10,0.0
11,0.0
12,0.0
13,0.0
14,4.099282469339411
15,-13.143755953300154
16,2.743618344403558
17,-12.321235444137585
18,4.720944987239816
2,1, 1, 1, 0, 2,15.00,30.00,Tuesday
7,-11.95
8,0.0
9,0.0
10,0.0
11,0.0
12,0.0
13,0.0
14,4.029317229940969
15,-12.966477432490475
16,2.694329096353272
17,-12.138909623270934
18,4.628342291016265
2,1, 1, 1, 0, 2,30.00,45.00,Tuesday
7,-11.825
8,0.0
9,0.0
10,0.0
11,0.0
12,0.0
13,0.0
14,3.9743102977376898
15,-12.788109498997855
16,2.649911397684491
17,-11.965523686931306
18,4.559234565835064
2,1, 1, 1, 0, 2,45.00,60.00,Tuesday
7,-11.7
8,0.0
9,0.0
10,0.0
11,0.0
12,0.0
13,0.0
14,3.929276937510555
15,-12.609813127982836
16,2.6174264330340977
17,-11.791183489394712
18,4.504349429335303
2,1, 1, 1, 0, 3, 0.00,15.00,Tuesday
7,-11.549999999999999
8,0.0
9,0.0
10,0.0
11,0.0
12,0.0
13,0.0
14,3.885306529546671
15,-12.483948619270672
16,2.589564648359385
17,-11.660790300744907
18,4.455686376800691
2,1, 1, 1, 0, 3,15.00,30.00,Tuesday
7,-11.399999999999999
8,0.0
9,0.0
10,0.0
11,0.0
12,0.0
13,0.0
14,3.8443305570043306
15,-12.359457431198925
16,2.561968713828037
17,-11.52404957082922
18,4.409122525715918
2,1, 1, 1, 0, 3,30.00,45.00,Tuesday
7,-11.25
8,0.0
9,0.0
10,0.0
11,0.0
12,0.0
13,0.0
14,3.8041191477566116
15,-12.236499697054838
16,2.5360263752118046
17,-11.38723483049489
18,4.363400941445306
2,1, 1, 1, 0, 3,45.00,60.00,Tuesday
7,-11.1
8,0.0
9,0.0
10,0.0
11,0.0
12,0.0
13,0.0
14,3.7642968685169486
15,-12.11513572426679
16,2.5106273011908799
17,-11.250956777299735
18,4.318346091219864
2,1, 1, 1, 0, 4, 0.00,15.00,Tuesday
7,-11.1
8,0.0
9,0.0
10,0.0
11,0.0
12,0.0
13,0.0
14,3.721158502290817
15,-12.086208396331847
16,2.4687517889891525
17,-11.244667652294425
18,4.273556341193086
2,1, 1, 1, 0, 4,15.00,30.00,Tuesday
7,-11.1
8,0.0
9,0.0
10,0.0
11,0.0
12,0.0
13,0.0
14,3.6784566505827707
15,-12.058387502024804
16,2.428100661423059
17,-11.245021173052806
18,4.228806625812793
2,1, 1, 1, 0, 4,30.00,45.00,Tuesday
7,-11.1
8,0.0
9,0.0
10,0.0
11,0.0
12,0.0
13,0.0
14,3.6357606621320355
15,-12.032120784062702
16,2.3877154003021134
17,-11.245723751438959
18,4.184074918884645
2,1, 1, 1, 0, 4,45.00,60.00,Tuesday
7,-11.1
8,0.0
9,0.0
10,0.0
11,0.0
12,0.0
13,0.0
14,3.593101206453978
15,-12.007280886111538
16,2.347406876543687
17,-11.246426463236162
18,4.1394069811984519
2,1, 1, 1, 0, 5, 0.00,15.00,Tuesday
7,-10.975
8,0.0
9,0.0
10,0.0
11,0.0
12,0.0
13,0.0
14,3.55578298109403
15,-11.885158927673965
16,2.3211711833645269
17,-11.142951486842435
18,4.095576784972414
2,1, 1, 1, 0, 5,15.00,30.00,Tuesday
7,-10.85
8,0.0
9,0.0
10,0.0
11,0.0
12,0.0
13,0.0
14,3.5185882911477428
15,-11.763122191121731
16,2.295639971175376
17,-11.03229898464133
18,4.052966410505645
2,1, 1, 1, 0, 5,30.00,45.00,Tuesday
7,-10.725
8,0.0
9,0.0
10,0.0
11,0.0
12,0.0
13,0.0
14,3.482210217201602
15,-11.641067816140872
16,2.270559486314937
17,-10.921104181797432
18,4.011448890953514
2,1, 1, 1, 0, 5,45.00,60.00,Tuesday
7,-10.6
8,0.0
9,0.0
10,0.0
11,0.0
12,0.0
13,0.0
14,3.4465320336716558
15,-11.51902424191697
16,2.246200007440393
17,-10.809808411257564
18,3.9707611793640056
2,1, 1, 1, 0, 6, 0.00,15.00,Tuesday
7,-10.6
8,0.0
9,0.0
10,0.0
11,0.0
12,0.0
13,0.0
14,3.4039458991056548
15,-11.51986988371215
16,2.2080660637124085
17,-10.805508260905527
18,3.9295856549893299
2,1, 1, 1, 0, 6,15.00,30.00,Tuesday
7,-10.6
8,0.0
9,0.0
10,0.0
11,0.0
12,0.0
13,0.0
14,3.3619653615527977
15,-11.520652043599612
16,2.168670589021417
17,-10.808528914825047
18,3.8872649827014387
2,1, 1, 1, 0, 6,30.00,45.00,Tuesday
7,-10.6
8,0.0
9,0.0
10,0.0
11,0.0
12,0.0
13,0.0
14,3.31950189081057
15,-11.521474908455936
16,2.1293092499380465
17,-10.812024044742202
18,3.8439974542669836
2,1, 1, 1, 0, 6,45.00,60.00,Tuesday
7,-10.6
8,0.0
9,0.0
10,0.0
11,0.0
12,0.0
13,0.0
14,3.2767358032246056
15,-11.522297016561744
16,2.0895735630087985
17,-10.815588718509276
18,3.800215242426403
2,1, 1, 1, 0, 7, 0.00,15.00,Tuesday
7,-10.6
8,0.0
9,0.0
10,0.0
11,0.0
12,0.0
13,0.0
14,3.23606257157857
15,-11.498427750573998
16,2.0501578762040255
17,-10.815140542936092
18,3.7566401505794198
2,1, 1, 1, 0, 7,15.00,30.00,Tuesday
7,-10.6
8,0.0
9,0.0
10,0.0
11,0.0
12,0.0
13,0.0
14,3.1952600358052325
15,-11.475792690034587
16,2.011867253380842
17,-10.814357505930616
18,3.71363209953643
2,1, 1, 1, 0, 7,30.00,45.00,Tuesday
7,-10.6
8,0.0
9,0.0
10,0.0
11,0.0
12,0.0
13,0.0
14,3.154761827320397
15,-11.454307713701248
16,1.9737137104893919
17,-10.813594692587742
18,3.671147695733673
2,1, 1, 1, 0, 7,45.00,60.00,Tuesday
7,-10.6
8,0.0
9,0.0
10,0.0
11,0.0
12,0.0
13,0.0
14,3.114564431830612
15,-11.43390515038975
16,1.9358561030966258
17,-10.812845189573693
18,3.6290419927820185
2,1, 1, 1, 0, 8, 0.00,15.00,Tuesday
7,-10.45
8,0.0
9,0.0
10,0.0
11,0.0
12,0.0
13,0.0
14,3.073455407396237
15,-11.384966150990538
16,1.9034712809304324
17,-10.774224930394326
18,3.586698856885109
2,1, 1, 1, 0, 8,15.00,30.00,Tuesday
7,-10.3
8,115.03919117926972
9,1.0
10,22.819555959623899
11,1.0
12,22.819555959623899
13,115.03919117926972
14,3.1428140839067155
15,-9.71172676616324
16,2.215016524360692
17,-10.4709925857411
18,3.5598887526083788
2,1, 1, 1, 0, 8,30.00,45.00,Tuesday
7,-10.15
8,564.843581773016
9,1.0
10,109.75755355442667
11,1.0
12,109.75755355442667
13,564.843581773016
14,3.512241184934083
15,-3.34502919531459
16,3.635560404831722
17,-9.380322304212939
18,3.591427065468801
2,1, 1, 1, 0, 8,45.00,60.00,Tuesday
7,-10.0
8,1027.107415698465
9,1.0
10,195.8764694434918
11,1.0
12,195.8764694434918
13,1027.107415698465
14,3.9626044689275066
15,3.132327067739008
16,5.115695981656927
17,-8.269928976221195
18,3.6896196108506964
2,1, 1, 1, 0, 9, 0.00,15.00,Tuesday
7,-9.725
8,1487.7790350735168
9,1.0
10,278.97248314719988
11,1.0
12,278.97248314719988
13,1487.7790350735168
14,4.368337670562658
15,8.320958875535203
16,6.481930570749455
17,-7.275534959753713
18,3.839408157486755
2,1, 1, 1, 0, 9,15.00,30.00,Tuesday
7,-9.45
8,1973.3797118442713
9,1.0
10,364.91995730569456
11,1.0
12,364.91995730569456
13,1973.3797118442713
14,4.765630740857764
15,13.395474536824289
16,7.873288040067109
17,-6.280718387564093
18,4.032709413652411
2,1, 1, 1, 0, 9,30.00,45.00,Tuesday
7,-9.175
8,2294.651274485231
9,1.0
10,420.35879993239237
11,1.0
12,420.35879993239237
13,2294.651274485231
14,5.044094936067902
15,16.153730758326807
16,8.828504760182569
17,-5.659989979094803
18,4.24923205324657
2,1, 1, 1, 0, 9,45.00,60.00,Tuesday
7,-8.9
8,2628.157408555287
9,1.0
10,478.00138373643099
11,1.0
12,478.00138373643099
13,2628.157408555287
14,5.372446954654118
15,19.148279755290955
16,9.779902651576777
17,-5.014918230654644
18,4.4784395008496029
2,1, 1, 1, 0,10, 0.00,15.00,Tuesday
7,-8.350000000000002
8,2968.709586547734
9,1.0
10,536.9185644770597
11,1.0
12,536.9185644770597
13,2968.709586547734
14,5.643951248110221
15,20.26535712644479
16,10.76632228758524
17,-4.228978921482337
18,4.721683200589121
2,1, 1, 1, 0,10,15.00,30.00,Tuesday
7,-7.800000000000001
8,3321.0268194611828
9,1.0
10,598.0969199229219
11,1.0
12,598.0969199229219
13,3321.0268194611828
14,5.941210956113962
15,21.518056881139107
16,11.77187036529267
17,-3.4691400574391197
18,4.985742774545797
2,1, 1, 1, 0,10,30.00,45.00,Tuesday
7,-7.25
8,3552.151013375401
9,1.0
10,637.6133352894237
11,1.0
12,637.6133352894237
13,3552.151013375401
14,6.168288562723562
15,21.577498344763435
16,12.503872950149173
17,-2.930847728209926
18,5.256618973227051
2,1, 1, 1, 0,10,45.00,60.00,Tuesday
7,-6.7
8,3779.8708706745844
9,1.0
10,676.6412284283772
11,1.0
12,676.6412284283772
13,3779.8708706745844
14,6.415621388702002
15,21.73745011821223
16,13.203491304741704
17,-2.371884854955738
18,5.523150824544068
2,1, 1, 1, 0,11, 0.00,15.00,Tuesday
7,-6.275
8,4003.447923168032
9,1.0
10,715.0112779846514
11,1.0
12,715.0112779846514
13,4003.447923168032
14,6.738752035359767
15,23.835143467516845
16,13.908332631268081
17,-1.6736566570628498
18,5.787109726094737
2,1, 1, 1, 0,11,15.00,30.00,Tuesday
7,-5.85
8,4221.762249309513
9,1.0
10,752.5077794605232
11,1.0
12,752.5077794605232
13,4221.762249309513
14,7.049469877075467
15,25.77006710162768
16,14.606053384317875
17,-0.9852710807579683
18,6.052757836853011
2,1, 1, 1, 0,11,30.00,45.00,Tuesday
7,-5.425
8,4156.879578089225
9,1.0
10,742.5988714321785
11,1.0
12,742.5988714321785
13,4156.879578089225
14,7.229330955521154
15,25.621792407368223
16,14.71735637203426
17,-0.6777817191602935
18,6.3040638129971529
2,1, 1, 1, 0,11,45.00,60.00,Tuesday
7,-5.0
8,4064.169807818047
9,1.0
10,727.8169025450712
11,1.0
12,727.8169025450712
13,4064.169807818047
14,7.404450338745448
15,25.392600757611846
16,14.738645762045963
17,-0.39758530742926725
18,6.5293619834739939
2,1, 1, 1, 0,12, 0.00,15.00,Tuesday
7,-4.575
8,3904.7370931113848
9,1.0
10,700.3759009170325
11,1.0
12,700.3759009170325
13,3904.7370931113848
14,7.524660833504842
15,24.649985531967947
16,14.60249740446443
17,-0.16461893231200976
18,6.722424435866105
2,1, 1, 1, 0,12,15.00,30.00,Tuesday
7,-4.15
8,3786.4971101905705
9,1.0
10,681.6705029034473
11,1.0
12,681.6705029034473
13,3786.4971101905705
14,7.666335754549672
15,24.319580067844254
16,14.542930173716684
17,0.13072522607512838
18,6.890486561496076
2,1, 1, 1, 0,12,30.00,45.00,Tuesday
7,-3.7249999999999998
8,3324.2291040318089
9,1.0
10,602.01865277251
11,1.0
12,602.01865277251
13,3324.2291040318089
14,7.581727813847278
15,21.29116939115791
16,13.732980949193177
17,-0.01926835466360899
18,7.013974989149357
2,1, 1, 1, 0,12,45.00,60.00,Tuesday
7,-3.3
8,2714.939666512416
9,1.0
10,493.55004396206007
11,1.0
12,493.55004396206007
13,2714.939666512416
14,7.391582030658151
15,17.11271107496963
16,12.469209211315274
17,-0.40773821756624786
18,7.07193270794434
2,1, 1, 1, 0,13, 0.00,15.00,Tuesday
7,-3.0249999999999996
8,2241.7153986594264
9,1.0
10,412.335026418112
11,1.0
12,412.335026418112
13,2241.7153986594264
14,7.255526119365971
15,14.26847256737607
16,11.44677789440999
17,-0.6706963929724452
18,7.078669444923557
2,1, 1, 1, 0,13,15.00,30.00,Tuesday
7,-2.75
8,1641.850123185226
9,1.0
10,305.94037763660148
11,1.0
12,305.94037763660148
13,1641.850123185226
14,6.96902303545473
15,10.094535460636147
16,10.065473666645289
17,-1.1381405687981215
18,7.040859318751918
2,1, 1, 1, 0,13,30.00,45.00,Tuesday
7,-2.475
8,1498.9510431694724
9,1.0
10,281.0763483922329
11,1.0
12,281.0763483922329
13,1498.9510431694724
14,6.951168011984048
15,9.583553963462546
16,9.69376435795607
17,-0.9913558972704095
18,6.987574053484155
2,1, 1, 1, 0,13,45.00,60.00,Tuesday
7,-2.2
8,1359.0287484929959
9,1.0
10,256.7721209415886
11,1.0
12,256.7721209415886
13,1359.0287484929959
14,6.9150103381468679
15,8.976158174557004
16,9.401167111343398
17,-0.8220216039673005
18,6.941761049249994
2,1, 1, 1, 0,14, 0.00,15.00,Tuesday
7,-1.9250000000000003
8,1110.188267973163
9,1.0
10,210.73276284570657
11,1.0
12,210.73276284570657
13,1110.188267973163
14,6.791975239680465
15,7.427293792060751
16,8.79425056248516
17,-0.8706866349029951
18,6.899432402028966
2,1, 1, 1, 0,14,15.00,30.00,Tuesday
7,-1.6500000000000002
8,986.2055451828589
9,1.0
10,189.38488290342594
11,1.0
12,189.38488290342594
13,986.2055451828589
14,6.770450478675478
15,7.025672738060586
16,8.48357586271834
17,-0.7360639876259256
18,6.861018644211506
2,1, 1, 1, 0,14,30.00,45.00,Tuesday
7,-1.375
8,940.5609907953474
9,1.0
10,179.3940297802914
11,1.0
12,179.3940297802914
13,940.5609907953474
14,6.763910556826137
15,7.146460980950442
16,8.379286571983187
17,-0.49608658151794318
18,6.829491919531567
2,1, 1, 1, 0,14,45.00,60.00,Tuesday
7,-1.1
8,894.3949724036753
9,1.0
10,169.43349014176136
11,1.0
12,169.43349014176136
13,894.3949724036753
14,6.755714825355809
15,7.245302727220993
16,8.269486464431907
17,-0.2564432665620302
18,6.804508131777799
2,1, 1, 1, 0,15, 0.00,15.00,Tuesday
7,-1.1
8,941.4068197394458
9,1.0
10,178.15692317953907
11,1.0
12,178.15692317953907
13,941.4068197394458
14,6.804821713701209
15,8.06193918365602
16,8.389465354751679
17,-0.14879348173906238
18,6.789644665473785
2,1, 1, 1, 0,15,15.00,30.00,Tuesday
7,-1.1
8,884.4258525960432
9,1.0
10,166.40516310952945
11,1.0
12,166.40516310952945
13,884.4258525960432
14,6.764966431282437
15,7.698890349246417
16,8.239785776472673
17,-0.21786989819725023
18,6.77787939036646
2,1, 1, 1, 0,15,30.00,45.00,Tuesday
7,-1.1
8,745.7319878230006
9,1.0
10,140.8967369711617
11,1.0
12,140.8967369711617
13,745.7319878230006
14,6.661045487170397
15,6.489814476686764
16,7.846709416337092
17,-0.4550380331446604
18,6.756591943347059
2,1, 1, 1, 0,15,45.00,60.00,Tuesday
7,-1.1
8,613.6766501346383
9,1.0
10,116.57355796743004
11,1.0
12,116.57355796743004
13,613.6766501346383
14,6.565497107297971
15,5.285884381111172
16,7.444207413555205
17,-0.6974034386107633
18,6.718669057864143
2,1, 1, 1, 0,16, 0.00,15.00,Tuesday
7,-1.1
8,487.0488027440361
9,1.0
10,93.14939272689483
11,1.0
12,93.14939272689483
13,487.0488027440361
14,6.4707400758364799
15,4.232802284800711
16,7.044673884840222
17,-0.8710841299397316
18,6.664789053923249
2,1, 1, 1, 0,16,15.00,30.00,Tuesday
7,-1.1
8,302.3607792671943
9,1.0
10,57.94047897402063
11,1.0
12,57.94047897402063
13,302.3607792671943
14,6.295413084584972
15,2.107849197237403
16,6.417390045329512
17,-1.2110086369696092
18,6.590841404585459
2,1, 1, 1, 0,16,30.00,45.00,Tuesday
7,-1.1
8,234.42837183280779
9,1.0
10,45.38251793443488
11,1.0
12,45.38251793443488
13,234.42837183280779
14,6.225958183936996
15,1.4953927162071832
16,6.141183663865036
17,-1.3082046599566866
18,6.505924435795111
2,1, 1, 1, 0,16,45.00,60.00,Tuesday
7,-1.1
8,163.64653449269407
9,1.0
10,32.02625108222755
11,1.0
12,32.02625108222755
13,163.64653449269407
14,6.123189769218789
15,0.6306915495410932
16,5.886274356997319
17,-1.4230641887940579
18,6.416501213484279
2,1, 1, 1, 0,17, 0.00,15.00,Tuesday
7,-1.1
8,89.75989496584296
9,1.0
10,17.762198626050539
11,1.0
12,17.762198626050539
13,89.75989496584296
14,5.992012244171381
15,-0.6228597147933421
16,5.592729294241224
17,-1.6690927143482668
18,6.325853764576718
2,1, 1, 1, 0,17,15.00,30.00,Tuesday
7,-1.1
8,0.0
9,0.0
10,0.0
11,0.0
12,0.0
13,0.0
14,5.813982069165017
15,-2.4609319719832678
16,5.240225713836367
17,-1.9325943649213287
18,6.225455232576007
2,1, 1, 1, 0,17,30.00,45.00,Tuesday
7,-1.1
8,0.0
9,0.0
10,0.0
11,0.0
12,0.0
13,0.0
14,5.761025135805051
15,-2.5979640114507687
16,5.134591022323207
17,-2.0005703807404986
18,6.128391708164288
2,1, 1, 1, 0,17,45.00,60.00,Tuesday
7,-1.1
8,0.0
9,0.0
10,0.0
11,0.0
12,0.0
13,0.0
14,5.694279427315919
15,-2.790560202232136
16,5.072106830200028
17,-2.0805970308817907
18,6.046784559004692
2,1, 1, 1, 0,18, 0.00,15.00,Tuesday
7,-1.25
8,0.0
9,0.0
10,0.0
11,0.0
12,0.0
13,0.0
14,5.639129268284598
15,-2.93813690668935
16,4.9976890694227908
17,-2.2341486919835917
18,5.981867407175672
2,1, 1, 1, 0,18,15.00,30.00,Tuesday
7,-1.4
8,0.0
9,0.0
10,0.0
11,0.0
12,0.0
13,0.0
14,5.589128405327865
15,-3.0904646255708414
16,4.936929036894128
17,-2.376852848811154
18,5.929095646078267
2,1, 1, 1, 0,18,30.00,45.00,Tuesday
7,-1.5499999999999999
8,0.0
9,0.0
10,0.0
11,0.0
12,0.0
13,0.0
14,5.5434983030777
15,-3.242289995015834
16,4.880653143502741
17,-2.5200026846434868
18,5.883393476997392
2,1, 1, 1, 0,18,45.00,60.00,Tuesday
7,-1.7
8,0.0
9,0.0
10,0.0
11,0.0
12,0.0
13,0.0
14,5.500128020659149
15,-3.3942771005673806
16,4.827648765458264
17,-2.6627344139432127
18,5.841344344945745
2,1, 1, 1, 0,19, 0.00,15.00,Tuesday
7,-1.825
8,0.0
9,0.0
10,0.0
11,0.0
12,0.0
13,0.0
14,5.482485924740647
15,-3.244258375410448
16,4.793705754747123
17,-2.6673361284663885
18,5.804906405441789
2,1, 1, 1, 0,19,15.00,30.00,Tuesday
7,-1.9500000000000002
8,0.0
9,0.0
10,0.0
11,0.0
12,0.0
13,0.0
14,5.464150214090674
15,-3.1758594356945104
16,4.76724769754702
17,-2.702922183897897
18,5.775784013565164
2,1, 1, 1, 0,19,30.00,45.00,Tuesday
7,-2.075
8,0.0
9,0.0
10,0.0
11,0.0
12,0.0
13,0.0
14,5.441188553761562
15,-3.2491509646963565
16,4.737700672382061
17,-2.797085979574433
18,5.752261279983736
2,1, 1, 1, 0,19,45.00,60.00,Tuesday
7,-2.2
8,0.0
9,0.0
10,0.0
11,0.0
12,0.0
13,0.0
14,5.42148743141427
15,-3.225556046017516
16,4.7137808427042959
17,-2.8496805696522644
18,5.731285217699656
2,1, 1, 1, 0,20, 0.00,15.00,Tuesday
7,-1.9250000000000003
8,0.0
9,0.0
10,0.0
11,0.0
12,0.0
13,0.0
14,5.417600069623697
15,-2.924002348689041
16,4.7275153605251039
17,-2.585747550653764
18,5.712554967146169
2,1, 1, 1, 0,20,15.00,30.00,Tuesday
7,-1.6500000000000002
8,0.0
9,0.0
10,0.0
11,0.0
12,0.0
13,0.0
14,5.413269827339698
15,-2.6255219707232237
16,4.745035200322775
17,-2.3201043779444605
18,5.696285782316156
2,1, 1, 1, 0,20,30.00,45.00,Tuesday
7,-1.375
8,0.0
9,0.0
10,0.0
11,0.0
12,0.0
13,0.0
14,5.410348041886887
15,-2.328315652115113
16,4.763428708223955
17,-2.054178148859478
18,5.682202664632855
2,1, 1, 1, 0,20,45.00,60.00,Tuesday
7,-1.1
8,0.0
9,0.0
10,0.0
11,0.0
12,0.0
13,0.0
14,5.40868127245365
15,-2.032394494999895
16,4.783187352284131
17,-1.7879372193954169
18,5.669836436464632
2,1, 1, 1, 0,21, 0.00,15.00,Tuesday
7,-1.25
8,0.0
9,0.0
10,0.0
11,0.0
12,0.0
13,0.0
14,5.365281066048138
15,-2.3147224191377404
16,4.7478227838448678
17,-1.9846782221375748
18,5.653093232322057
2,1, 1, 1, 0,21,15.00,30.00,Tuesday
7,-1.4
8,0.0
9,0.0
10,0.0
11,0.0
12,0.0
13,0.0
14,5.3231417146451449
15,-2.531894080886136
16,4.7006830785734909
17,-2.140145150179137
18,5.627489254838635
2,1, 1, 1, 0,21,30.00,45.00,Tuesday
7,-1.5499999999999999
8,0.0
9,0.0
10,0.0
11,0.0
12,0.0
13,0.0
14,5.267433770938604
15,-2.877803006996121
16,4.644189635643443
17,-2.3542624052614657
18,5.591845857219253
2,1, 1, 1, 0,21,45.00,60.00,Tuesday
7,-1.7
8,0.0
9,0.0
10,0.0
11,0.0
12,0.0
13,0.0
14,5.206227083577751
15,-3.331521386912428
16,4.5714059012733518
17,-2.606715578278454
18,5.5479955502376809
2,1, 1, 1, 0,22, 0.00,15.00,Tuesday
7,-1.5499999999999999
8,0.0
9,0.0
10,0.0
11,0.0
12,0.0
13,0.0
14,5.214697640938978
15,-2.841772747546167
16,4.560669045976169
17,-2.34134037263658
18,5.50964357998026
2,1, 1, 1, 0,22,15.00,30.00,Tuesday
7,-1.4
8,0.0
9,0.0
10,0.0
11,0.0
12,0.0
13,0.0
14,5.21248404563484
15,-2.510088400448609
16,4.574317001546888
17,-2.1323370959659089
18,5.484235902506911
2,1, 1, 1, 0,22,30.00,45.00,Tuesday
7,-1.25
8,0.0
9,0.0
10,0.0
11,0.0
12,0.0
13,0.0
14,5.209352036481905
15,-2.2892534026559958
16,4.584176954453369
17,-1.974911196689618
18,5.469573403661348
2,1, 1, 1, 0,22,45.00,60.00,Tuesday
7,-1.1
8,0.0
9,0.0
10,0.0
11,0.0
12,0.0
13,0.0
14,5.210207665080888
15,-2.0055094025786057
16,4.599243791570132
17,-1.769120696076186
18,5.460469542471258
2,1, 1, 1, 0,23, 0.00,15.00,Tuesday
7,-1.25
8,0.0
9,0.0
10,0.0
11,0.0
12,0.0
13,0.0
14,5.167139542513281
15,-2.308849593980817
16,4.55286441576709
17,-2.0816625918740785
18,5.447115640573402
2,1, 1, 1, 0,23,15.00,30.00,Tuesday
7,-1.4
8,0.0
9,0.0
10,0.0
11,0.0
12,0.0
13,0.0
14,5.126735612068287
15,-2.613377077456621
16,4.4883329265466049
17,-2.3971785996574797
18,5.424414551026245
2,1, 1, 1, 0,23,30.00,45.00,Tuesday
7,-1.5499999999999999
8,0.0
9,0.0
10,0.0
11,0.0
12,0.0
13,0.0
14,5.082120511580191
15,-2.9185448055700777
16,4.42257816094957
17,-2.7124111290290786
18,5.393162178085613
2,1, 1, 1, 0,23,45.00,60.00,Tuesday
7,-1.7
8,0.0
9,0.0
10,0.0
11,0.0
12,0.0
13,0.0
14,5.033862421548099
15,-3.2240550212157288
16,4.353072700463883
17,-3.0276888607584739
18,5.356030571471405
2,1, 1, 1, 0,24, 0.00,15.00,Tuesday
7,-1.7
8,0.0
9,0.0
10,0.0
11,0.0
12,0.0
13,0.0
14,5.002354804693612
15,-3.2779819342366598
16,4.311348341412952
17,-3.086573508260358
18,5.318099888479631
2,1, 1, 1, 0,24,15.00,30.00,Tuesday
7,-1.7
8,0.0
9,0.0
10,0.0
11,0.0
12,0.0
13,0.0
14,4.967812987017433
15,-3.332589572392986
16,4.275055527937525
17,-3.148180859993829
18,5.282181587239361
2,1, 1, 1, 0,24,30.00,45.00,Tuesday
7,-1.7
8,0.0
9,0.0
10,0.0
11,0.0
12,0.0
13,0.0
14,4.934131336092922
15,-3.387059918726435
16,4.238107030342576
17,-3.2099936226242677
18,5.248363023054925
2,1, 1, 1, 0,24,45.00,60.00,Tuesday
7,-1.7
8,0.0
9,0.0
10,0.0
11,0.0
12,0.0
13,0.0
14,4.901101358158509
15,-3.441534057479955
16,4.201906227677284
17,-3.2716763541393449
18,5.215805737845602
End of Data
 Number of Records Written=        1152
