Program Version,EnergyPlus, Version 9.5.0-de239b2e5f, YMD=2023.02.16 18:16
1,5,Environment Title[],Latitude[deg],Longitude[deg],Time Zone[],Elevation[m]
2,8,Day of Simulation[],Month[],Day of Month[],DST Indicator[1=yes 0=no],Hour[],StartMinute[],EndMinute[],DayType
3,5,Cumulative Day of Simulation[],Month[],Day of Month[],DST Indicator[1=yes 0=no],DayType  ! When Daily Report Variables Requested
4,2,Cumulative Days of Simulation[],Month[]  ! When Monthly Report Variables Requested
5,1,Cumulative Days of Simulation[] ! When Run Period Report Variables Requested
6,1,Calendar Year of Simulation[] ! When Annual Report Variables Requested
7,1,Environment,Site Outdoor Air Drybulb Temperature [C] !TimeStep
8,1,ZONE ONE,Zone Windows Total Transmitted Solar Radiation Rate [W] !TimeStep
9,1,ZN001:WALL001,Surface Outside Face Sunlit Fraction [] !TimeStep
10,1,ZN001:WALL001,Surface Outside Face Incident Solar Radiation Rate per Area [W/m2] !TimeStep
11,1,ZN001:WALL001:WIN001,Surface Outside Face Sunlit Fraction [] !TimeStep
12,1,ZN001:WALL001:WIN001,Surface Outside Face Incident Solar Radiation Rate per Area [W/m2] !TimeStep
13,1,ZN001:WALL001:WIN001,Surface Window Transmitted Solar Radiation Rate [W] !TimeStep
14,1,ZN001:WALL001,Surface Inside Face Temperature [C] !TimeStep
15,1,ZN001:WALL001,Surface Outside Face Temperature [C] !TimeStep
16,1,ZN001:WALL001:WIN001,Surface Inside Face Temperature [C] !TimeStep
17,1,ZN001:WALL001:WIN001,Surface Outside Face Temperature [C] !TimeStep
18,1,ZONE ONE,Zone Mean Air Temperature [C] !TimeStep
End of Data Dictionary
1,RUN PERIOD 1,  41.98, -87.92,  -6.00, 201.00
2,1, 1, 1, 0, 1, 0.00,15.00,Tuesday
7,-4.324999999999999
8,0.0
9,0.0
10,0.0
11,0.0
12,0.0
13,0.0
14,3.7202681217331459
15,-5.936128742859013
16,3.101424470022039
17,-5.7338790387864269
18,4.141424885927648
2,1, 1, 1, 0, 1,15.00,30.00,Tuesday
7,-6.949999999999999
8,0.0
9,0.0
10,0.0
11,0.0
12,0.0
13,0.0
14,3.55053316842626
15,-8.403752609344885
16,2.77850126194096
17,-8.044025154520114
18,4.062460661465439
2,1, 1, 1, 0, 1,30.00,45.00,Tuesday
7,-9.575
8,0.0
9,0.0
10,0.0
11,0.0
12,0.0
13,0.0
14,3.363757116995897
15,-10.87933666165777
16,2.4521033435542565
17,-10.361724579379427
18,3.9552368602598775
2,1, 1, 1, 0, 1,45.00,60.00,Tuesday
7,-12.2
8,0.0
9,0.0
10,0.0
11,0.0
12,0.0
13,0.0
14,3.1632981702206566
15,-13.361488529365639
16,2.1128412209211548
17,-12.698004920424808
18,3.827743174047747
2,1, 1, 1, 0, 2, 0.00,15.00,Tuesday
7,-12.075
8,0.0
9,0.0
10,0.0
11,0.0
12,0.0
13,0.0
14,3.111360739104956
15,-13.162579150426364
16,2.0130156885360295
17,-12.553603244327633
18,3.711182910143924
2,1, 1, 1, 0, 2,15.00,30.00,Tuesday
7,-11.95
8,0.0
9,0.0
10,0.0
11,0.0
12,0.0
13,0.0
14,3.044800028822967
15,-12.985231342189426
16,1.9648086446021012
17,-12.36901200802356
18,3.6214261134125809
2,1, 1, 1, 0, 2,30.00,45.00,Tuesday
7,-11.825
8,0.0
9,0.0
10,0.0
11,0.0
12,0.0
13,0.0
14,2.9929377169485487
15,-12.806793790088366
16,1.92103546082501
17,-12.193361491994722
18,3.554979091923307
2,1, 1, 1, 0, 2,45.00,60.00,Tuesday
7,-11.7
8,0.0
9,0.0
10,0.0
11,0.0
12,0.0
13,0.0
14,2.950963584551817
15,-12.628423858931818
16,1.8890665983429927
17,-12.016877561947979
18,3.5028149639892565
2,1, 1, 1, 0, 3, 0.00,15.00,Tuesday
7,-11.549999999999999
8,0.0
9,0.0
10,0.0
11,0.0
12,0.0
13,0.0
14,2.9099865635677086
15,-12.503003591341806
16,1.861537889589897
17,-11.888653257277156
18,3.457008800911464
2,1, 1, 1, 0, 3,15.00,30.00,Tuesday
7,-11.399999999999999
8,0.0
9,0.0
10,0.0
11,0.0
12,0.0
13,0.0
14,2.872049715272131
15,-12.378974805537773
16,1.8344208259630364
17,-11.754252663214743
18,3.413412452892385
2,1, 1, 1, 0, 3,30.00,45.00,Tuesday
7,-11.25
8,0.0
9,0.0
10,0.0
11,0.0
12,0.0
13,0.0
14,2.8349099303357088
15,-12.256502252911109
16,1.8090179673630474
17,-11.619933788470576
18,3.3707178462628755
2,1, 1, 1, 0, 3,45.00,60.00,Tuesday
7,-11.1
8,0.0
9,0.0
10,0.0
11,0.0
12,0.0
13,0.0
14,2.7981686627111088
15,-12.13564770766081
16,1.7841834820741838
17,-11.486255437649561
18,3.328711971761655
2,1, 1, 1, 0, 4, 0.00,15.00,Tuesday
7,-11.1
8,0.0
9,0.0
10,0.0
11,0.0
12,0.0
13,0.0
14,2.7581776039882168
15,-12.106073488767669
16,1.74557118150517
17,-11.475409299884689
18,3.2870223742893169
2,1, 1, 1, 0, 4,15.00,30.00,Tuesday
7,-11.1
8,0.0
9,0.0
10,0.0
11,0.0
12,0.0
13,0.0
14,2.718621689128434
15,-12.077631732069733
16,1.7079539718255888
17,-11.470368298959557
18,3.2454273236309807
2,1, 1, 1, 0, 4,30.00,45.00,Tuesday
7,-11.1
8,0.0
9,0.0
10,0.0
11,0.0
12,0.0
13,0.0
14,2.679087608699404
15,-12.050774388638306
16,1.6705672314295726
17,-11.46581154779517
18,3.2038848824694856
2,1, 1, 1, 0, 4,45.00,60.00,Tuesday
7,-11.1
8,0.0
9,0.0
10,0.0
11,0.0
12,0.0
13,0.0
14,2.639595645440937
15,-12.025373255084944
16,1.6332459579403463
17,-11.461463346464825
18,3.162419804790901
2,1, 1, 1, 0, 5, 0.00,15.00,Tuesday
7,-10.975
8,0.0
9,0.0
10,0.0
11,0.0
12,0.0
13,0.0
14,2.605441507892945
15,-11.903176071161802
16,1.608185350127485
17,-11.355379049890587
18,3.121761232407915
2,1, 1, 1, 0, 5,15.00,30.00,Tuesday
7,-10.85
8,0.0
9,0.0
10,0.0
11,0.0
12,0.0
13,0.0
14,2.5713974750104389
15,-11.781070734643429
16,1.5840148346933348
17,-11.24271749397883
18,3.082281149041691
2,1, 1, 1, 0, 5,30.00,45.00,Tuesday
7,-10.725
8,0.0
9,0.0
10,0.0
11,0.0
12,0.0
13,0.0
14,2.5381416067068245
15,-11.658948490358805
16,1.5602938233291753
17,-11.129600274245604
18,3.043864371809348
2,1, 1, 1, 0, 5,45.00,60.00,Tuesday
7,-10.6
8,0.0
9,0.0
10,0.0
11,0.0
12,0.0
13,0.0
14,2.505564878942244
15,-11.536837272120208
16,1.5372743454986449
17,-11.016405234856905
18,3.006259994724921
2,1, 1, 1, 0, 6, 0.00,15.00,Tuesday
7,-10.6
8,0.0
9,0.0
10,0.0
11,0.0
12,0.0
13,0.0
14,2.4659718258005389
15,-11.537633075844465
16,1.4993476316260513
17,-11.014780716690439
18,2.9682139869454686
2,1, 1, 1, 0, 6,15.00,30.00,Tuesday
7,-10.6
8,0.0
9,0.0
10,0.0
11,0.0
12,0.0
13,0.0
14,2.4270320746965106
15,-11.538357552772088
16,1.4623247922343126
17,-11.016454297746464
18,2.9290397361941555
2,1, 1, 1, 0, 6,30.00,45.00,Tuesday
7,-10.6
8,0.0
9,0.0
10,0.0
11,0.0
12,0.0
13,0.0
14,2.3876115103091135
15,-11.539122639837576
16,1.425401758094722
17,-11.019027210386696
18,2.8889044456392276
2,1, 1, 1, 0, 6,45.00,60.00,Tuesday
7,-10.6
8,0.0
9,0.0
10,0.0
11,0.0
12,0.0
13,0.0
14,2.3479177974206
15,-11.539887522138957
16,1.3907745209097585
17,-11.020172539762087
18,2.8481985599103578
2,1, 1, 1, 0, 7, 0.00,15.00,Tuesday
7,-10.6
8,0.0
9,0.0
10,0.0
11,0.0
12,0.0
13,0.0
14,2.310300250602798
15,-11.515500173490534
16,1.3542402996055217
17,-11.015291460274284
18,2.8076764801429099
2,1, 1, 1, 0, 7,15.00,30.00,Tuesday
7,-10.6
8,0.0
9,0.0
10,0.0
11,0.0
12,0.0
13,0.0
14,2.2725383095306266
15,-11.492374092667499
16,1.31876642878035
17,-11.010120084642097
18,2.7677221315142734
2,1, 1, 1, 0, 7,30.00,45.00,Tuesday
7,-10.6
8,0.0
9,0.0
10,0.0
11,0.0
12,0.0
13,0.0
14,2.2350363773551975
15,-11.47042160981794
16,1.280982021425416
17,-11.008008186808752
18,2.7283316486731605
2,1, 1, 1, 0, 7,45.00,60.00,Tuesday
7,-10.6
8,0.0
9,0.0
10,0.0
11,0.0
12,0.0
13,0.0
14,2.1978903740347994
15,-11.449573659011449
16,1.2461996135382379
17,-11.003771532679309
18,2.6893281602058409
2,1, 1, 1, 0, 8, 0.00,15.00,Tuesday
7,-10.45
8,0.0
9,0.0
10,0.0
11,0.0
12,0.0
13,0.0
14,2.1597777702485354
15,-11.400975932897998
16,1.21751539048023
17,-10.963138894512725
18,2.650024245418776
2,1, 1, 1, 0, 8,15.00,30.00,Tuesday
7,-10.3
8,92.15750704739708
9,1.0
10,22.819555959623899
11,1.0
12,22.819555959623899
13,92.15750704739708
14,2.228202581862819
15,-9.727960788287135
16,1.5887088115191546
17,-10.625473402957937
18,2.625585918327772
2,1, 1, 1, 0, 8,30.00,45.00,Tuesday
7,-10.15
8,454.0668273181285
9,1.0
10,109.75755355442667
11,1.0
12,109.75755355442667
13,454.0668273181285
14,2.5862892360332849
15,-3.364019331402404
16,3.237152371377931
17,-9.403967636742152
18,2.656549693530856
2,1, 1, 1, 0, 8,45.00,60.00,Tuesday
7,-10.0
8,829.8784025660395
9,1.0
10,195.8764694434918
11,1.0
12,195.8764694434918
13,829.8784025660395
14,3.020940843057017
15,3.1165060646604307
16,4.811201638975035
17,-8.181579283696295
18,2.7526685883116546
2,1, 1, 1, 0, 9, 0.00,15.00,Tuesday
7,-9.725
8,1208.431253707413
9,1.0
10,278.97248314719988
11,1.0
12,278.97248314719988
13,1208.431253707413
14,3.3963320347107799
15,8.305047874913598
16,6.259858900733207
17,-7.112060995908678
18,2.9030467971705686
2,1, 1, 1, 0, 9,15.00,30.00,Tuesday
7,-9.45
8,1611.27847082868
9,1.0
10,364.91995730569456
11,1.0
12,364.91995730569456
13,1611.27847082868
14,3.794716770083689
15,13.380678659583133
16,7.714290455045898
17,-6.0559128352663269
18,3.0934227274613854
2,1, 1, 1, 0, 9,30.00,45.00,Tuesday
7,-9.175
8,1882.5474509696963
9,1.0
10,420.35879993239237
11,1.0
12,420.35879993239237
13,1882.5474509696963
14,4.0565428992060739
15,16.139275810227184
16,8.706029622277015
17,-5.412802569395524
18,3.3048320232015415
2,1, 1, 1, 0, 9,45.00,60.00,Tuesday
7,-8.9
8,2165.2536956705005
9,1.0
10,478.00138373643099
11,1.0
12,478.00138373643099
13,2165.2536956705005
14,4.3716240998904489
15,19.134153632593656
16,9.685573208955589
17,-4.742457876001993
18,3.528442721662318
2,1, 1, 1, 0,10, 0.00,15.00,Tuesday
7,-8.350000000000002
8,2454.840672138349
9,1.0
10,536.9185644770597
11,1.0
12,536.9185644770597
13,2454.840672138349
14,4.627455795488723
15,20.25217730839139
16,10.701614278767579
17,-3.9455340281459145
18,3.7701474098844778
2,1, 1, 1, 0,10,15.00,30.00,Tuesday
7,-7.800000000000001
8,2754.837686584413
9,1.0
10,598.0969199229219
11,1.0
12,598.0969199229219
13,2754.837686584413
14,4.910170853223459
15,21.505721962898848
16,11.74274943676528
17,-3.172913705619635
18,4.0283781143486518
2,1, 1, 1, 0,10,30.00,45.00,Tuesday
7,-7.25
8,2954.460675234528
9,1.0
10,637.6133352894237
11,1.0
12,637.6133352894237
13,2954.460675234528
14,5.123121369353083
15,21.56580082207418
16,12.489263831025199
17,-2.6364112095582188
18,4.288695971288598
2,1, 1, 1, 0,10,45.00,60.00,Tuesday
7,-6.7
8,3151.0542115929945
9,1.0
10,676.6412284283772
11,1.0
12,676.6412284283772
13,3151.0542115929945
14,5.3536036855961639
15,21.726278079857406
16,13.203903269188118
17,-2.0777194666188736
18,4.5418946943724969
2,1, 1, 1, 0,11, 0.00,15.00,Tuesday
7,-6.275
8,3343.9250631385687
9,1.0
10,715.0112779846514
11,1.0
12,715.0112779846514
13,3343.9250631385687
14,5.659847536811839
15,23.823845474231836
16,13.920765206223337
17,-1.3622505678022208
18,4.790991814454931
2,1, 1, 1, 0,11,15.00,30.00,Tuesday
7,-5.85
8,3532.070082927922
9,1.0
10,752.5077794605232
11,1.0
12,752.5077794605232
13,3532.070082927922
14,5.952602407494131
15,25.758647122512227
16,14.627591306757381
17,-0.6580787978476792
18,5.040735966371639
2,1, 1, 1, 0,11,30.00,45.00,Tuesday
7,-5.425
8,3479.1857131981189
9,1.0
10,742.5988714321785
11,1.0
12,742.5988714321785
13,3479.1857131981189
14,6.117956829137115
15,25.610289063093985
16,14.71548783442887
17,-0.3542681762674533
18,5.27558534606983
2,1, 1, 1, 0,11,45.00,60.00,Tuesday
7,-5.0
8,3401.966428615978
9,1.0
10,727.8169025450712
11,1.0
12,727.8169025450712
13,3401.966428615978
14,6.27871122435919
15,25.38091560762031
16,14.709467225801973
17,-0.08005762034798636
18,5.484477816009562
2,1, 1, 1, 0,12, 0.00,15.00,Tuesday
7,-4.575
8,3268.9162799877196
9,1.0
10,700.3759009170325
11,1.0
12,700.3759009170325
13,3268.9162799877196
14,6.387125832629501
15,24.638141264318845
16,14.53038040195213
17,0.13803257614551968
18,5.661849395333193
2,1, 1, 1, 0,12,15.00,30.00,Tuesday
7,-4.15
8,3167.996389959925
9,1.0
10,681.6705029034473
11,1.0
12,681.6705029034473
13,3167.996389959925
14,6.5155686255048199
15,24.307574227541733
16,14.445460556768012
17,0.4283309016062731
18,5.81489019889669
2,1, 1, 1, 0,12,30.00,45.00,Tuesday
7,-3.7249999999999998
8,2777.3496836530587
9,1.0
10,602.01865277251
11,1.0
12,602.01865277251
13,2777.3496836530587
14,6.426660174881255
15,21.279038547376314
16,13.555694477330463
17,0.24527508647463493
18,5.925183047341135
2,1, 1, 1, 0,12,45.00,60.00,Tuesday
7,-3.3
8,2266.039030991335
9,1.0
10,493.55004396206007
11,1.0
12,493.55004396206007
13,2266.039030991335
14,6.236324674972689
15,17.10032499064292
16,12.176307266557899
17,-0.20523333112146248
18,5.974461599818448
2,1, 1, 1, 0,13, 0.00,15.00,Tuesday
7,-3.0249999999999996
8,1864.918535661873
9,1.0
10,412.335026418112
11,1.0
12,412.335026418112
13,1864.918535661873
14,6.100332905336308
15,14.25565530089929
16,11.084446049017402
17,-0.5012167419018283
18,5.974681842915329
2,1, 1, 1, 0,13,15.00,30.00,Tuesday
7,-2.75
8,1360.7676135935772
9,1.0
10,305.94037763660148
11,1.0
12,305.94037763660148
13,1360.7676135935772
14,5.831728898356428
15,10.080840394533862
16,9.593136596345289
17,-1.0246733365266892
18,5.927778494417306
2,1, 1, 1, 0,13,30.00,45.00,Tuesday
7,-2.475
8,1239.845359812998
9,1.0
10,281.0763483922329
11,1.0
12,281.0763483922329
13,1239.845359812998
14,5.810599874766025
15,9.570974783768783
16,9.204896531211944
17,-0.8871063659212268
18,5.866733537069328
2,1, 1, 1, 0,13,45.00,60.00,Tuesday
7,-2.2
8,1121.425395556538
9,1.0
10,256.7721209415886
11,1.0
12,256.7721209415886
13,1121.425395556538
14,5.77422136722084
15,8.963300858521722
16,8.879738478834952
17,-0.7272746976213966
18,5.815709298740409
2,1, 1, 1, 0,14, 0.00,15.00,Tuesday
7,-1.9250000000000003
8,914.5926123773469
9,1.0
10,210.73276284570657
11,1.0
12,210.73276284570657
13,914.5926123773469
14,5.659279372223009
15,7.414583649869213
16,8.20862224131173
17,-0.8034237113499785
18,5.769781744030256
2,1, 1, 1, 0,14,15.00,30.00,Tuesday
7,-1.6500000000000002
8,809.6775858076765
9,1.0
10,189.38488290342594
11,1.0
12,189.38488290342594
13,809.6775858076765
14,5.637079837808555
15,7.011408539563061
16,7.878058081717768
17,-0.678862954119893
18,5.72926861590263
2,1, 1, 1, 0,14,30.00,45.00,Tuesday
7,-1.375
8,773.1146972475121
9,1.0
10,179.3940297802914
11,1.0
12,179.3940297802914
13,773.1146972475121
14,5.631875413859129
15,7.131648433498471
16,7.746975207439846
17,-0.4484569543298562
18,5.6967603269723769
2,1, 1, 1, 0,14,45.00,60.00,Tuesday
7,-1.1
8,735.7893474842847
9,1.0
10,169.43349014176136
11,1.0
12,169.43349014176136
13,735.7893474842847
14,5.625788986131673
15,7.229998685458885
16,7.613101933646021
17,-0.21827414456367934
18,5.671562486475805
2,1, 1, 1, 0,15, 0.00,15.00,Tuesday
7,-1.1
8,773.8909461974802
9,1.0
10,178.15692317953907
11,1.0
12,178.15692317953907
13,773.8909461974802
14,5.672336698292731
15,8.046065268459314
16,7.745443809071389
17,-0.10209989760210192
18,5.656969091953747
2,1, 1, 1, 0,15,15.00,30.00,Tuesday
7,-1.1
8,726.941996004965
9,1.0
10,166.40516310952945
11,1.0
12,166.40516310952945
13,726.941996004965
14,5.635943402691555
15,7.682589484139035
16,7.573029375078136
17,-0.1828703364585067
18,5.645387713833186
2,1, 1, 1, 0,15,30.00,45.00,Tuesday
7,-1.1
8,611.5649513491846
9,1.0
10,140.8967369711617
11,1.0
12,140.8967369711617
13,611.5649513491846
14,5.536641730165685
15,6.472528795833723
16,7.151383867225945
17,-0.44183157348322768
18,5.6244087066908909
2,1, 1, 1, 0,15,45.00,60.00,Tuesday
7,-1.1
8,502.0061046110028
9,1.0
10,116.57355796743004
11,1.0
12,116.57355796743004
13,502.0061046110028
14,5.445807093761275
15,5.268217965583409
16,6.723053845878326
17,-0.7058107074899453
18,5.587331078980816
2,1, 1, 1, 0,16, 0.00,15.00,Tuesday
7,-1.1
8,397.3564596057699
9,1.0
10,93.14939272689483
11,1.0
12,93.14939272689483
13,397.3564596057699
14,5.355805712024821
15,4.213827374500476
16,6.298970156061614
17,-0.902491969752532
18,5.535096537447006
2,1, 1, 1, 0,16,15.00,30.00,Tuesday
7,-1.1
8,246.0241224001257
9,1.0
10,57.94047897402063
11,1.0
12,57.94047897402063
13,246.0241224001257
14,5.188615068560329
15,2.087292501324535
16,5.630261573136181
17,-1.2880239377054182
18,5.46369480223282
2,1, 1, 1, 0,16,30.00,45.00,Tuesday
7,-1.1
8,190.18037094464638
9,1.0
10,45.38251793443488
11,1.0
12,45.38251793443488
13,190.18037094464638
14,5.122024609951938
15,1.4728683508769894
16,5.319217784926195
17,-1.4052093139403042
18,5.382887067475453
2,1, 1, 1, 0,16,45.00,60.00,Tuesday
7,-1.1
8,132.41076891910806
9,1.0
10,32.02625108222755
11,1.0
12,32.02625108222755
13,132.41076891910806
14,5.024016826365341
15,0.60599741394613
16,5.030037923364716
17,-1.546292714621245
18,5.2998047046997549
2,1, 1, 1, 0,17, 0.00,15.00,Tuesday
7,-1.1
8,72.49471069167912
9,1.0
10,17.762198626050539
11,1.0
12,17.762198626050539
13,72.49471069167912
14,4.898813454452954
15,-0.6504710781171279
16,4.705189415297696
17,-1.8247960153967143
18,5.2122133596294939
2,1, 1, 1, 0,17,15.00,30.00,Tuesday
7,-1.1
8,0.0
9,0.0
10,0.0
11,0.0
12,0.0
13,0.0
14,4.7259395706907159
15,-2.4899481979551068
16,4.313233591260996
17,-2.1182654043561799
18,5.113039344551931
2,1, 1, 1, 0,17,30.00,45.00,Tuesday
7,-1.1
8,0.0
9,0.0
10,0.0
11,0.0
12,0.0
13,0.0
14,4.674792959130965
15,-2.628396310818626
16,4.210830866764468
17,-2.1949456059609249
18,5.0167034347235879
2,1, 1, 1, 0,17,45.00,60.00,Tuesday
7,-1.1
8,0.0
9,0.0
10,0.0
11,0.0
12,0.0
13,0.0
14,4.610203519502537
15,-2.8234214828012367
16,4.149567253659825
17,-2.285697913484796
18,4.93587155929554
2,1, 1, 1, 0,18, 0.00,15.00,Tuesday
7,-1.25
8,0.0
9,0.0
10,0.0
11,0.0
12,0.0
13,0.0
14,4.5573721855164319
15,-2.9706866008150318
16,4.078229018018931
17,-2.439542836324563
18,4.87208880610287
2,1, 1, 1, 0,18,15.00,30.00,Tuesday
7,-1.4
8,0.0
9,0.0
10,0.0
11,0.0
12,0.0
13,0.0
14,4.509763569985717
15,-3.122995445217695
16,4.020705413510996
17,-2.5835415493898497
18,4.820925045379596
2,1, 1, 1, 0,18,30.00,45.00,Tuesday
7,-1.5499999999999999
8,0.0
9,0.0
10,0.0
11,0.0
12,0.0
13,0.0
14,4.466738484630724
15,-3.274761245715856
16,3.9723918392890598
17,-2.724158621778429
18,4.777284878229865
2,1, 1, 1, 0,18,45.00,60.00,Tuesday
7,-1.7
8,0.0
9,0.0
10,0.0
11,0.0
12,0.0
13,0.0
14,4.425960388813806
15,-3.426687274285884
16,3.9183074422636539
17,-2.8724230260987726
18,4.7376506259540129
2,1, 1, 1, 0,19, 0.00,15.00,Tuesday
7,-1.825
8,0.0
9,0.0
10,0.0
11,0.0
12,0.0
13,0.0
14,4.411582238814877
15,-3.2729349789792367
16,3.8882832298928635
17,-2.860091951094489
18,4.7038479166776379
2,1, 1, 1, 0,19,15.00,30.00,Tuesday
7,-1.9500000000000002
8,0.0
9,0.0
10,0.0
11,0.0
12,0.0
13,0.0
14,4.397582000866643
15,-3.20124561766681
16,3.86663426118821
17,-2.8811009047716427
18,4.677637658729889
2,1, 1, 1, 0,19,30.00,45.00,Tuesday
7,-2.075
8,0.0
9,0.0
10,0.0
11,0.0
12,0.0
13,0.0
14,4.376999235846603
15,-3.2736837516499945
16,3.8418019705286499
17,-2.9722936158436825
18,4.657173662670219
2,1, 1, 1, 0,19,45.00,60.00,Tuesday
7,-2.2
8,0.0
9,0.0
10,0.0
11,0.0
12,0.0
13,0.0
14,4.360722526649975
15,-3.247135505426433
16,3.8224515210579286
17,-3.0116185790728879
18,4.63936035107975
2,1, 1, 1, 0,20, 0.00,15.00,Tuesday
7,-1.9250000000000003
8,0.0
9,0.0
10,0.0
11,0.0
12,0.0
13,0.0
14,4.360036968805003
15,-2.944862377978099
16,3.8363789863294075
17,-2.7400595958388864
18,4.6237800385905
2,1, 1, 1, 0,20,15.00,30.00,Tuesday
7,-1.6500000000000002
8,0.0
9,0.0
10,0.0
11,0.0
12,0.0
13,0.0
14,4.359115547782329
15,-2.6457248373791129
16,3.854274592863703
17,-2.4684892594576128
18,4.610609862157552
2,1, 1, 1, 0,20,30.00,45.00,Tuesday
7,-1.375
8,0.0
9,0.0
10,0.0
11,0.0
12,0.0
13,0.0
14,4.359552619489796
15,-2.3479030277187165
16,3.873072089324012
17,-2.196869688823199
18,4.599597562170751
2,1, 1, 1, 0,20,45.00,60.00,Tuesday
7,-1.1
8,0.0
9,0.0
10,0.0
11,0.0
12,0.0
13,0.0
14,4.361218638146201
15,-2.0513962351454699
16,3.893186283991895
17,-1.9251683266681426
18,4.590297270787621
2,1, 1, 1, 0,21, 0.00,15.00,Tuesday
7,-1.25
8,0.0
9,0.0
10,0.0
11,0.0
12,0.0
13,0.0
14,4.320504840567202
15,-2.336710333853638
16,3.861160942233255
17,-2.1389828986269778
18,4.576786748012172
2,1, 1, 1, 0,21,15.00,30.00,Tuesday
7,-1.4
8,0.0
9,0.0
10,0.0
11,0.0
12,0.0
13,0.0
14,4.2808022342596099
15,-2.555470200368435
16,3.8176188358311267
17,-2.3024871866800256
18,4.554550160559368
2,1, 1, 1, 0,21,30.00,45.00,Tuesday
7,-1.5499999999999999
8,0.0
9,0.0
10,0.0
11,0.0
12,0.0
13,0.0
14,4.227389060863556
15,-2.905308998281403
16,3.7613781876755185
17,-2.5409527959703839
18,4.522273284972198
2,1, 1, 1, 0,21,45.00,60.00,Tuesday
7,-1.7
8,0.0
9,0.0
10,0.0
11,0.0
12,0.0
13,0.0
14,4.1686270801789979
15,-3.3635126586742039
16,3.692842738772697
17,-2.810742402548442
18,4.481626047215054
2,1, 1, 1, 0,22, 0.00,15.00,Tuesday
7,-1.5499999999999999
8,0.0
9,0.0
10,0.0
11,0.0
12,0.0
13,0.0
14,4.180330864626214
15,-2.868454467998067
16,3.6839299952021067
17,-2.518222706707604
18,4.446136500950843
2,1, 1, 1, 0,22,15.00,30.00,Tuesday
7,-1.4
8,0.0
9,0.0
10,0.0
11,0.0
12,0.0
13,0.0
14,4.182744753007237
15,-2.533147301150757
16,3.700091545602163
17,-2.2907456178479608
18,4.423477130512145
2,1, 1, 1, 0,22,30.00,45.00,Tuesday
7,-1.25
8,0.0
9,0.0
10,0.0
11,0.0
12,0.0
13,0.0
14,4.18322142038808
15,-2.3107354463138964
16,3.711998640149261
17,-2.124721268274925
18,4.411662090868403
2,1, 1, 1, 0,22,45.00,60.00,Tuesday
7,-1.1
8,0.0
9,0.0
10,0.0
11,0.0
12,0.0
13,0.0
14,4.187579515203574
15,-2.0240855796622356
16,3.7298697538456055
17,-1.902857664940484
18,4.4055685281693599
2,1, 1, 1, 0,23, 0.00,15.00,Tuesday
7,-1.25
8,0.0
9,0.0
10,0.0
11,0.0
12,0.0
13,0.0
14,4.146708515498859
15,-2.327504076070424
16,3.6897815351888996
17,-2.2185111006771764
18,4.395483500220536
2,1, 1, 1, 0,23,15.00,30.00,Tuesday
7,-1.4
8,0.0
9,0.0
10,0.0
11,0.0
12,0.0
13,0.0
14,4.109926831867133
15,-2.6319861828762609
16,3.630639571121719
17,-2.5359549822696865
18,4.376338839736336
2,1, 1, 1, 0,23,30.00,45.00,Tuesday
7,-1.5499999999999999
8,0.0
9,0.0
10,0.0
11,0.0
12,0.0
13,0.0
14,4.067096717030206
15,-2.937158626487546
16,3.5709609918735625
17,-2.8530743814869767
18,4.34864280802378
2,1, 1, 1, 0,23,45.00,60.00,Tuesday
7,-1.7
8,0.0
9,0.0
10,0.0
11,0.0
12,0.0
13,0.0
14,4.021817462371158
15,-3.2425884697793179
16,3.5068941258284669
17,-3.1702696031103985
18,4.31491797902235
2,1, 1, 1, 0,24, 0.00,15.00,Tuesday
7,-1.7
8,0.0
9,0.0
10,0.0
11,0.0
12,0.0
13,0.0
14,3.9933455018331829
15,-3.296432382698807
16,3.4684583003743798
17,-3.2284445595786908
18,4.28018406372923
2,1, 1, 1, 0,24,15.00,30.00,Tuesday
7,-1.7
8,0.0
9,0.0
10,0.0
11,0.0
12,0.0
13,0.0
14,3.961849428112022
15,-3.3509873966061027
16,3.4353998444335049
17,-3.289932150433799
18,4.247304436114277
2,1, 1, 1, 0,24,30.00,45.00,Tuesday
7,-1.7
8,0.0
9,0.0
10,0.0
11,0.0
12,0.0
13,0.0
14,3.9311216674000168
15,-3.4054078901017319
16,3.4016332742859278
17,-3.3516290730457287
18,4.216455321704072
2,1, 1, 1, 0,24,45.00,60.00,Tuesday
7,-1.7
8,0.0
9,0.0
10,0.0
11,0.0
12,0.0
13,0.0
14,3.901007235457179
15,-3.4598308515985507
16,3.3685486467762759
17,-3.4132130576086867
18,4.186856861428355
End of Data
 Number of Records Written=        1152
