Program Version,EnergyPlus, Version 9.5.0-de239b2e5f, YMD=2023.02.16 18:16
1,5,Environment Title[],Latitude[deg],Longitude[deg],Time Zone[],Elevation[m]
2,8,Day of Simulation[],Month[],Day of Month[],DST Indicator[1=yes 0=no],Hour[],StartMinute[],EndMinute[],DayType
3,5,Cumulative Day of Simulation[],Month[],Day of Month[],DST Indicator[1=yes 0=no],DayType  ! When Daily Report Variables Requested
4,2,Cumulative Days of Simulation[],Month[]  ! When Monthly Report Variables Requested
5,1,Cumulative Days of Simulation[] ! When Run Period Report Variables Requested
6,1,Calendar Year of Simulation[] ! When Annual Report Variables Requested
7,1,Environment,Site Outdoor Air Drybulb Temperature [C] !TimeStep
8,1,ZONE ONE,Zone Windows Total Transmitted Solar Radiation Rate [W] !TimeStep
9,1,ZN001:WALL001,Surface Outside Face Sunlit Fraction [] !TimeStep
10,1,ZN001:WALL001,Surface Outside Face Incident Solar Radiation Rate per Area [W/m2] !TimeStep
11,1,ZN001:WALL001:WIN001,Surface Outside Face Sunlit Fraction [] !TimeStep
12,1,ZN001:WALL001:WIN001,Surface Outside Face Incident Solar Radiation Rate per Area [W/m2] !TimeStep
13,1,ZN001:WALL001:WIN001,Surface Window Transmitted Solar Radiation Rate [W] !TimeStep
14,1,ZN001:WALL001,Surface Inside Face Temperature [C] !TimeStep
15,1,ZN001:WALL001,Surface Outside Face Temperature [C] !TimeStep
16,1,ZN001:WALL001:WIN001,Surface Inside Face Temperature [C] !TimeStep
17,1,ZN001:WALL001:WIN001,Surface Outside Face Temperature [C] !TimeStep
18,1,ZONE ONE,Zone Mean Air Temperature [C] !TimeStep
End of Data Dictionary
1,RUN PERIOD 1,  41.98, -87.92,  -6.00, 201.00
2,1, 1, 1, 0, 1, 0.00,15.00,Tuesday
7,-4.324999999999999
8,0.0
9,0.0
10,0.0
11,0.0
12,0.0
13,0.0
14,3.6768069433457239
15,-5.936921513745996
16,3.0199224973689526
17,-5.70700131007311
18,4.096290078140039
2,1, 1, 1, 0, 1,15.00,30.00,Tuesday
7,-6.949999999999999
8,0.0
9,0.0
10,0.0
11,0.0
12,0.0
13,0.0
14,3.5068616624675
15,-8.404555748388099
16,2.6881589889520685
17,-8.01027376393597
18,4.017097715963455
2,1, 1, 1, 0, 1,30.00,45.00,Tuesday
7,-9.575
8,0.0
9,0.0
10,0.0
11,0.0
12,0.0
13,0.0
14,3.3197985589112188
15,-10.880157401783619
16,2.3529158864609487
17,-10.321081248688302
18,3.909513243577504
2,1, 1, 1, 0, 1,45.00,60.00,Tuesday
7,-12.2
8,0.0
9,0.0
10,0.0
11,0.0
12,0.0
13,0.0
14,3.118993323672864
15,-13.362327018281537
16,2.0049001069940006
17,-12.650553829403748
18,3.781569152925652
2,1, 1, 1, 0, 2, 0.00,15.00,Tuesday
7,-12.075
8,0.0
9,0.0
10,0.0
11,0.0
12,0.0
13,0.0
14,3.0668853011222247
15,-13.163431119226774
16,1.9059568651732662
17,-12.507032985457272
18,3.6646343235140348
2,1, 1, 1, 0, 2,15.00,30.00,Tuesday
7,-11.95
8,0.0
9,0.0
10,0.0
11,0.0
12,0.0
13,0.0
14,3.000155060061458
15,-12.98608562965907
16,1.8583977398093339
17,-12.323157962012602
18,3.5746353819156639
2,1, 1, 1, 0, 2,30.00,45.00,Tuesday
7,-11.825
8,0.0
9,0.0
10,0.0
11,0.0
12,0.0
13,0.0
14,2.948188135326582
15,-12.807647459032362
16,1.8153542816055506
17,-12.148226365364394
18,3.508053234133311
2,1, 1, 1, 0, 2,45.00,60.00,Tuesday
7,-11.7
8,0.0
9,0.0
10,0.0
11,0.0
12,0.0
13,0.0
14,2.9061523187725055
15,-12.629276690797252
16,1.7841560623487567
17,-11.97242174387884
18,3.455816732033509
2,1, 1, 1, 0, 3, 0.00,15.00,Tuesday
7,-11.549999999999999
8,0.0
9,0.0
10,0.0
11,0.0
12,0.0
13,0.0
14,2.865133172621719
15,-12.503879686100726
16,1.7573837491627274
17,-11.843973193887053
18,3.409969291330361
2,1, 1, 1, 0, 3,15.00,30.00,Tuesday
7,-11.399999999999999
8,0.0
9,0.0
10,0.0
11,0.0
12,0.0
13,0.0
14,2.8271662531453596
15,-12.379875300577656
16,1.7310030030383815
17,-11.709310807632903
18,3.366345787759922
2,1, 1, 1, 0, 3,30.00,45.00,Tuesday
7,-11.25
8,0.0
9,0.0
10,0.0
11,0.0
12,0.0
13,0.0
14,2.790002488996091
15,-12.257428477387752
16,1.7063344446179372
17,-11.574700847421355
18,3.323631438317553
2,1, 1, 1, 0, 3,45.00,60.00,Tuesday
7,-11.1
8,0.0
9,0.0
10,0.0
11,0.0
12,0.0
13,0.0
14,2.753241035471007
15,-12.136600945666313
16,1.6822350428672053
17,-11.440717363488318
18,3.2816111104446779
2,1, 1, 1, 0, 4, 0.00,15.00,Tuesday
7,-11.1
8,0.0
9,0.0
10,0.0
11,0.0
12,0.0
13,0.0
14,2.7132222404556054
15,-12.107000125746346
16,1.643565880272206
17,-11.43074806737934
18,3.2399014909123977
2,1, 1, 1, 0, 4,15.00,30.00,Tuesday
7,-11.1
8,0.0
9,0.0
10,0.0
11,0.0
12,0.0
13,0.0
14,2.673638218043336
15,-12.078533073836791
16,1.605985201904673
17,-11.426750568432226
18,3.1982783026233054
2,1, 1, 1, 0, 4,30.00,45.00,Tuesday
7,-11.1
8,0.0
9,0.0
10,0.0
11,0.0
12,0.0
13,0.0
14,2.634072680582001
15,-12.051651735683274
16,1.5686430517199029
17,-11.423213968540722
18,3.1567021738894396
2,1, 1, 1, 0, 4,45.00,60.00,Tuesday
7,-11.1
8,0.0
9,0.0
10,0.0
11,0.0
12,0.0
13,0.0
14,2.5945472499889958
15,-12.026227769619716
16,1.5313674236709858
17,-11.41984681093004
18,3.115200851714771
2,1, 1, 1, 0, 5, 0.00,15.00,Tuesday
7,-10.975
8,0.0
9,0.0
10,0.0
11,0.0
12,0.0
13,0.0
14,2.5603695551135878
15,-11.904030398379158
16,1.5069402198465696
17,-11.314421297460172
18,3.0745125735723786
2,1, 1, 1, 0, 5,15.00,30.00,Tuesday
7,-10.85
8,0.0
9,0.0
10,0.0
11,0.0
12,0.0
13,0.0
14,2.5263040948188619
15,-11.781924953697425
16,1.4833304086048429
17,-11.202295685816808
18,3.0350115262221779
2,1, 1, 1, 0, 5,30.00,45.00,Tuesday
7,-10.725
8,0.0
9,0.0
10,0.0
11,0.0
12,0.0
13,0.0
14,2.4930313772622054
15,-11.659802503234799
16,1.4601669990036613
17,-11.089695149604325
18,2.996580500577538
2,1, 1, 1, 0, 5,45.00,60.00,Tuesday
7,-10.6
8,0.0
9,0.0
10,0.0
11,0.0
12,0.0
13,0.0
14,2.460441369569333
15,-11.53769104532537
16,1.4377077265767185
17,-10.977011011894547
18,2.958966156612302
2,1, 1, 1, 0, 6, 0.00,15.00,Tuesday
7,-10.6
8,0.0
9,0.0
10,0.0
11,0.0
12,0.0
13,0.0
14,2.4208290208679568
15,-11.53848765072877
16,1.4000894557574384
17,-10.975459545507932
18,2.9209091280417507
2,1, 1, 1, 0, 6,15.00,30.00,Tuesday
7,-10.6
8,0.0
9,0.0
10,0.0
11,0.0
12,0.0
13,0.0
14,2.3818672079164324
15,-11.539212508852748
16,1.3631595196948752
17,-10.977249816339168
18,2.8817192664729864
2,1, 1, 1, 0, 6,30.00,45.00,Tuesday
7,-10.6
8,0.0
9,0.0
10,0.0
11,0.0
12,0.0
13,0.0
14,2.3424238584083718
15,-11.539978106095907
16,1.3263506276450699
17,-10.979941502011969
18,2.8415637478721385
2,1, 1, 1, 0, 6,45.00,60.00,Tuesday
7,-10.6
8,0.0
9,0.0
10,0.0
11,0.0
12,0.0
13,0.0
14,2.302702211590067
15,-11.54074351826387
16,1.2915911161230725
17,-10.981174518282274
18,2.8008321103907938
2,1, 1, 1, 0, 7, 0.00,15.00,Tuesday
7,-10.6
8,0.0
9,0.0
10,0.0
11,0.0
12,0.0
13,0.0
14,2.265026322362596
15,-11.516334231567285
16,1.2528232576530059
17,-10.980005460749283
18,2.7603179528413199
2,1, 1, 1, 0, 7,15.00,30.00,Tuesday
7,-10.6
8,0.0
9,0.0
10,0.0
11,0.0
12,0.0
13,0.0
14,2.2272635260615685
15,-11.493187106729702
16,1.2177836835236349
17,-10.97626003407936
18,2.720376313904436
2,1, 1, 1, 0, 7,30.00,45.00,Tuesday
7,-10.6
8,0.0
9,0.0
10,0.0
11,0.0
12,0.0
13,0.0
14,2.1897893712453264
15,-11.471214427776549
16,1.1825269100072547
17,-10.972204211814188
18,2.680955050871942
2,1, 1, 1, 0, 7,45.00,60.00,Tuesday
7,-10.6
8,0.0
9,0.0
10,0.0
11,0.0
12,0.0
13,0.0
14,2.1526094046446477
15,-11.450347577716033
16,1.1475477906815286
17,-10.968143252299342
18,2.6419040655748899
2,1, 1, 1, 0, 8, 0.00,15.00,Tuesday
7,-10.45
8,0.0
9,0.0
10,0.0
11,0.0
12,0.0
13,0.0
14,2.1144626004402848
15,-11.401770022569947
16,1.1189871258821996
17,-10.927249206161492
18,2.602556107336133
2,1, 1, 1, 0, 8,15.00,30.00,Tuesday
7,-10.3
8,92.15750704739708
9,1.0
10,22.819555959623899
11,1.0
12,22.819555959623899
13,92.15750704739708
14,2.182912372905124
15,-9.72875783280049
16,1.4899205933610347
17,-10.588308917400127
18,2.5781012829792195
2,1, 1, 1, 0, 8,30.00,45.00,Tuesday
7,-10.15
8,454.0668273181285
9,1.0
10,109.75755355442667
11,1.0
12,109.75755355442667
13,454.0668273181285
14,2.541245563488256
15,-3.3649100060075436
16,3.1384841866376975
17,-9.361924885743634
18,2.6090843837690866
2,1, 1, 1, 0, 8,45.00,60.00,Tuesday
7,-10.0
8,829.8784025660395
9,1.0
10,195.8764694434918
11,1.0
12,195.8764694434918
13,829.8784025660395
14,2.976867926433236
15,3.1160670264136547
16,4.718354016064836
17,-8.13769228282598
18,2.705137813981567
2,1, 1, 1, 0, 9, 0.00,15.00,Tuesday
7,-9.725
8,1208.431253707413
9,1.0
10,278.97248314719988
11,1.0
12,278.97248314719988
13,1208.431253707413
14,3.35177633255189
15,8.304167230191132
16,6.170105491377171
17,-7.066465329106677
18,2.8552712873505916
2,1, 1, 1, 0, 9,15.00,30.00,Tuesday
7,-9.45
8,1611.27847082868
9,1.0
10,364.91995730569456
11,1.0
12,364.91995730569456
13,1611.27847082868
14,3.750366582702877
15,13.37999439227076
16,7.627245438918294
17,-6.008521294719628
18,3.0453150434306215
2,1, 1, 1, 0, 9,30.00,45.00,Tuesday
7,-9.175
8,1882.5474509696963
9,1.0
10,420.35879993239237
11,1.0
12,420.35879993239237
13,1882.5474509696963
14,4.011231887157709
15,16.138613088724978
16,8.620072295588614
17,-5.364260706330242
18,3.2565966200777956
2,1, 1, 1, 0, 9,45.00,60.00,Tuesday
7,-8.9
8,2165.2536956705005
9,1.0
10,478.00138373643099
11,1.0
12,478.00138373643099
13,2165.2536956705005
14,4.326475835307726
15,19.133507936241949
16,9.600074982981369
17,-4.692852675018912
18,3.480142859309517
2,1, 1, 1, 0,10, 0.00,15.00,Tuesday
7,-8.350000000000002
8,2454.840672138349
9,1.0
10,536.9185644770597
11,1.0
12,536.9185644770597
13,2454.840672138349
14,4.582277271598487
15,20.251589026484589
16,10.617312198165223
17,-3.8979522130737225
18,3.7218217663489434
2,1, 1, 1, 0,10,15.00,30.00,Tuesday
7,-7.800000000000001
8,2754.837686584413
9,1.0
10,598.0969199229219
11,1.0
12,598.0969199229219
13,2754.837686584413
14,4.864997911810329
15,21.50517580913278
16,11.65949871152327
17,-3.1268593448723438
18,3.980041377809905
2,1, 1, 1, 0,10,30.00,45.00,Tuesday
7,-7.25
8,2954.460675234528
9,1.0
10,637.6133352894237
11,1.0
12,637.6133352894237
13,2954.460675234528
14,5.077968075295074
15,21.56529412978703
16,12.406540487609619
17,-2.592061826071017
18,4.240360800002795
2,1, 1, 1, 0,10,45.00,60.00,Tuesday
7,-6.7
8,3151.0542115929945
9,1.0
10,676.6412284283772
11,1.0
12,676.6412284283772
13,3151.0542115929945
14,5.308472061440804
15,21.725802856921374
16,13.121736878173295
17,-2.035110777628347
18,4.493571154294038
2,1, 1, 1, 0,11, 0.00,15.00,Tuesday
7,-6.275
8,3343.9250631385687
9,1.0
10,715.0112779846514
11,1.0
12,715.0112779846514
13,3343.9250631385687
14,5.6147470123329958
15,23.82336722236696
16,13.84002867256521
17,-1.3191660891601487
18,4.742707674617447
2,1, 1, 1, 0,11,15.00,30.00,Tuesday
7,-5.85
8,3532.070082927922
9,1.0
10,752.5077794605232
11,1.0
12,752.5077794605232
13,3532.070082927922
14,5.9075390205807569
15,25.75817428924367
16,14.548205456201004
17,-0.6145295142441114
18,4.992523408257661
2,1, 1, 1, 0,11,30.00,45.00,Tuesday
7,-5.425
8,3479.1857131981189
9,1.0
10,742.5988714321785
11,1.0
12,742.5988714321785
13,3479.1857131981189
14,6.072954246948667
15,25.609822770060896
16,14.63663013019982
17,-0.31144417139717009
18,5.227454552273585
2,1, 1, 1, 0,11,45.00,60.00,Tuesday
7,-5.0
8,3401.966428615978
9,1.0
10,727.8169025450712
11,1.0
12,727.8169025450712
13,3401.966428615978
14,6.23377668971911
15,25.38044916857345
16,14.631190072809432
17,-0.03812601144818473
18,5.436423228742101
2,1, 1, 1, 0,12, 0.00,15.00,Tuesday
7,-4.575
8,3268.9162799877196
9,1.0
10,700.3759009170325
11,1.0
12,700.3759009170325
13,3268.9162799877196
14,6.342262073885621
15,24.637675666899914
16,14.4527043447589
17,0.17863430238003276
18,5.613859453990733
2,1, 1, 1, 0,12,15.00,30.00,Tuesday
7,-4.15
8,3167.996389959925
9,1.0
10,681.6705029034473
11,1.0
12,681.6705029034473
13,3167.996389959925
14,6.47075521366697
15,24.30710723967041
16,14.368617056826566
17,0.46776785101809539
18,5.766962496770504
2,1, 1, 1, 0,12,30.00,45.00,Tuesday
7,-3.7249999999999998
8,2777.3496836530587
9,1.0
10,602.01865277251
11,1.0
12,602.01865277251
13,2777.3496836530587
14,6.381929861376239
15,21.27857639204863
16,13.478547641059663
17,0.2818915945437652
18,5.8772933103860469
2,1, 1, 1, 0,12,45.00,60.00,Tuesday
7,-3.3
8,2266.039030991335
9,1.0
10,493.55004396206007
11,1.0
12,493.55004396206007
13,2266.039030991335
14,6.191844841552794
15,17.099865855599039
16,12.098977514609544
17,-0.17217178455427985
18,5.926490473708404
2,1, 1, 1, 0,13, 0.00,15.00,Tuesday
7,-3.0249999999999996
8,1864.918535661873
9,1.0
10,412.335026418112
11,1.0
12,412.335026418112
13,1864.918535661873
14,6.055962986443704
15,14.25519796957069
16,11.007326485662077
17,-0.4707935861856072
18,5.926631520488202
2,1, 1, 1, 0,13,15.00,30.00,Tuesday
7,-2.75
8,1360.7676135935772
9,1.0
10,305.94037763660148
11,1.0
12,305.94037763660148
13,1360.7676135935772
14,5.787226438137989
15,10.08045054453634
16,9.515597526070167
17,-0.9977174446751178
18,5.879895533679726
2,1, 1, 1, 0,13,30.00,45.00,Tuesday
7,-2.475
8,1239.845359812998
9,1.0
10,281.0763483922329
11,1.0
12,281.0763483922329
13,1239.845359812998
14,5.765953315421796
15,9.570413230217519
16,9.128446704467024
17,-0.8614471341748526
18,5.819066706056431
2,1, 1, 1, 0,13,45.00,60.00,Tuesday
7,-2.2
8,1121.425395556538
9,1.0
10,256.7721209415886
11,1.0
12,256.7721209415886
13,1121.425395556538
14,5.729725033900869
15,8.962744709811553
16,8.804537765804867
17,-0.7028448997979808
18,5.768205436381373
2,1, 1, 1, 0,14, 0.00,15.00,Tuesday
7,-1.9250000000000003
8,914.5926123773469
9,1.0
10,210.73276284570657
11,1.0
12,210.73276284570657
13,914.5926123773469
14,5.614652801169687
15,7.413913847681136
16,8.133767345818228
17,-0.7806480037755819
18,5.722424465962648
2,1, 1, 1, 0,14,15.00,30.00,Tuesday
7,-1.6500000000000002
8,809.6775858076765
9,1.0
10,189.38488290342594
11,1.0
12,189.38488290342594
13,809.6775858076765
14,5.592621022686461
15,7.01084590210347
16,7.804629715305737
17,-0.6567569659000583
18,5.682039167516819
2,1, 1, 1, 0,14,30.00,45.00,Tuesday
7,-1.375
8,773.1146972475121
9,1.0
10,179.3940297802914
11,1.0
12,179.3940297802914
13,773.1146972475121
14,5.587545574087964
15,7.1310714925145339
16,7.674909620881181
17,-0.42676032638217978
18,5.649639333949714
2,1, 1, 1, 0,14,45.00,60.00,Tuesday
7,-1.1
8,735.7893474842847
9,1.0
10,169.43349014176136
11,1.0
12,169.43349014176136
13,735.7893474842847
14,5.581580732570339
15,7.229400849821332
16,7.542379840719946
17,-0.19702924701925896
18,5.624541689714318
2,1, 1, 1, 0,15, 0.00,15.00,Tuesday
7,-1.1
8,773.8909461974802
9,1.0
10,178.15692317953907
11,1.0
12,178.15692317953907
13,773.8909461974802
14,5.628396463988169
15,8.045505656038788
16,7.675313877585779
17,-0.08003113413838037
18,5.6100114482117819
2,1, 1, 1, 0,15,15.00,30.00,Tuesday
7,-1.1
8,726.941996004965
9,1.0
10,166.40516310952945
11,1.0
12,166.40516310952945
13,726.941996004965
14,5.592150098157049
15,7.682048985028438
16,7.502610862271013
17,-0.1606053387378097
18,5.598501344483905
2,1, 1, 1, 0,15,30.00,45.00,Tuesday
7,-1.1
8,611.5649513491846
9,1.0
10,140.8967369711617
11,1.0
12,140.8967369711617
13,611.5649513491846
14,5.491974669430963
15,6.471060917461928
16,7.080578924151723
17,-0.41969653256546737
18,5.5776355856067429
2,1, 1, 1, 0,15,45.00,60.00,Tuesday
7,-1.1
8,502.0061046110028
9,1.0
10,116.57355796743004
11,1.0
12,116.57355796743004
13,502.0061046110028
14,5.401536477937656
15,5.267557597378874
16,6.651691729381014
17,-0.6838264458573349
18,5.540704598646069
2,1, 1, 1, 0,16, 0.00,15.00,Tuesday
7,-1.1
8,397.3564596057699
9,1.0
10,93.14939272689483
11,1.0
12,93.14939272689483
13,397.3564596057699
14,5.311494026933825
15,4.213050776022459
16,6.227288436670449
17,-0.8803853978495226
18,5.488628675644096
2,1, 1, 1, 0,16,15.00,30.00,Tuesday
7,-1.1
8,246.0241224001257
9,1.0
10,57.94047897402063
11,1.0
12,57.94047897402063
13,246.0241224001257
14,5.144324468838401
15,2.0864441540819786
16,5.563092438164858
17,-1.266719769928784
18,5.417426283823074
2,1, 1, 1, 0,16,30.00,45.00,Tuesday
7,-1.1
8,190.18037094464638
9,1.0
10,45.38251793443488
11,1.0
12,45.38251793443488
13,190.18037094464638
14,5.077729113221544
15,1.471965701805937
16,5.246497618344222
17,-1.383134645482187
18,5.336830814161899
2,1, 1, 1, 0,16,45.00,60.00,Tuesday
7,-1.1
8,132.41076891910806
9,1.0
10,32.02625108222755
11,1.0
12,32.02625108222755
13,132.41076891910806
14,4.979824309037495
15,0.6049977903440948
16,4.958971059323233
17,-1.5235793895699317
18,5.25390962775686
2,1, 1, 1, 0,17, 0.00,15.00,Tuesday
7,-1.1
8,72.49471069167912
9,1.0
10,17.762198626050539
11,1.0
12,17.762198626050539
13,72.49471069167912
14,4.854647123184032
15,-0.6515968104294164
16,4.634371667436881
17,-1.8014612329902776
18,5.166384514081555
2,1, 1, 1, 0,17,15.00,30.00,Tuesday
7,-1.1
8,0.0
9,0.0
10,0.0
11,0.0
12,0.0
13,0.0
14,4.6817459142827959
15,-2.4911349935804809
16,4.242658593127089
17,-2.096295953261233
18,5.067219635118965
2,1, 1, 1, 0,17,30.00,45.00,Tuesday
7,-1.1
8,0.0
9,0.0
10,0.0
11,0.0
12,0.0
13,0.0
14,4.630637357055734
15,-2.6296297344016219
16,4.140283014575175
17,-2.1718161561991566
18,4.97087481445244
2,1, 1, 1, 0,17,45.00,60.00,Tuesday
7,-1.1
8,0.0
9,0.0
10,0.0
11,0.0
12,0.0
13,0.0
14,4.566068043764759
15,-2.8247580865823784
16,4.0790026540061039
17,-2.261188854064244
18,4.890034868454769
2,1, 1, 1, 0,18, 0.00,15.00,Tuesday
7,-1.25
8,0.0
9,0.0
10,0.0
11,0.0
12,0.0
13,0.0
14,4.513259881819447
15,-2.9720118201584135
16,4.0073574412450629
17,-2.4147268593594619
18,4.826248481130024
2,1, 1, 1, 0,18,15.00,30.00,Tuesday
7,-1.4
8,0.0
9,0.0
10,0.0
11,0.0
12,0.0
13,0.0
14,4.465669834615287
15,-3.124322566375955
16,3.9494340701556327
17,-2.558295104886554
18,4.775084791846684
2,1, 1, 1, 0,18,30.00,45.00,Tuesday
7,-1.5499999999999999
8,0.0
9,0.0
10,0.0
11,0.0
12,0.0
13,0.0
14,4.422660116819977
15,-3.2760888301752284
16,3.9006316235846159
17,-2.6983439472899137
18,4.731446261267371
2,1, 1, 1, 0,18,45.00,60.00,Tuesday
7,-1.7
8,0.0
9,0.0
10,0.0
11,0.0
12,0.0
13,0.0
14,4.3818979457661089
15,-3.428015661502758
16,3.8462109696529298
17,-2.846266463239772
18,4.691816097671598
2,1, 1, 1, 0,19, 0.00,15.00,Tuesday
7,-1.825
8,0.0
9,0.0
10,0.0
11,0.0
12,0.0
13,0.0
14,4.367518930776073
15,-3.2741126133652487
16,3.813079094468435
17,-2.840398656101968
18,4.658039989165159
2,1, 1, 1, 0,19,15.00,30.00,Tuesday
7,-1.9500000000000002
8,0.0
9,0.0
10,0.0
11,0.0
12,0.0
13,0.0
14,4.353606958142261
15,-3.202291805920649
16,3.794213330954392
17,-2.858830658765669
18,4.6318441413251369
2,1, 1, 1, 0,19,30.00,45.00,Tuesday
7,-2.075
8,0.0
9,0.0
10,0.0
11,0.0
12,0.0
13,0.0
14,4.333065236728187
15,-3.27469443963866
16,3.76905263533223
17,-2.9501393856090205
18,4.611388344469898
2,1, 1, 1, 0,19,45.00,60.00,Tuesday
7,-2.2
8,0.0
9,0.0
10,0.0
11,0.0
12,0.0
13,0.0
14,4.316820407685329
15,-3.248028958396287
16,3.749477360594028
17,-2.9910881129836754
18,4.593585522805811
2,1, 1, 1, 0,20, 0.00,15.00,Tuesday
7,-1.9250000000000003
8,0.0
9,0.0
10,0.0
11,0.0
12,0.0
13,0.0
14,4.316190462853073
15,-2.945727415692175
16,3.764651474722882
17,-2.7210664193468689
18,4.5780354607130919
2,1, 1, 1, 0,20,15.00,30.00,Tuesday
7,-1.6500000000000002
8,0.0
9,0.0
10,0.0
11,0.0
12,0.0
13,0.0
14,4.315337925955435
15,-2.646563799200004
16,3.7836944763354269
17,-2.450722273313886
18,4.564919194369795
2,1, 1, 1, 0,20,30.00,45.00,Tuesday
7,-1.375
8,0.0
9,0.0
10,0.0
11,0.0
12,0.0
13,0.0
14,4.315853024622692
15,-2.348717237043535
16,3.803656630855812
17,-2.180278052077824
18,4.553979714470127
2,1, 1, 1, 0,20,45.00,60.00,Tuesday
7,-1.1
8,0.0
9,0.0
10,0.0
11,0.0
12,0.0
13,0.0
14,4.317605262324918
15,-2.0521867901700316
16,3.8249483272962268
17,-1.9097022134942563
18,4.544764964469108
2,1, 1, 1, 0,21, 0.00,15.00,Tuesday
7,-1.25
8,0.0
9,0.0
10,0.0
11,0.0
12,0.0
13,0.0
14,4.276912856173971
15,-2.337627747380692
16,3.7922892257939795
17,-2.1210167008661644
18,4.531332864404685
2,1, 1, 1, 0,21,15.00,30.00,Tuesday
7,-1.4
8,0.0
9,0.0
10,0.0
11,0.0
12,0.0
13,0.0
14,4.237223373240965
15,-2.556455431043314
16,3.7481826458830485
17,-2.283232839281709
18,4.509156768903183
2,1, 1, 1, 0,21,30.00,45.00,Tuesday
7,-1.5499999999999999
8,0.0
9,0.0
10,0.0
11,0.0
12,0.0
13,0.0
14,4.183813512196263
15,-2.90646155042384
16,3.691597008633721
17,-2.5188753470147278
18,4.476923453487106
2,1, 1, 1, 0,21,45.00,60.00,Tuesday
7,-1.7
8,0.0
9,0.0
10,0.0
11,0.0
12,0.0
13,0.0
14,4.125048908365241
15,-3.364856125968048
16,3.6224714028412565
17,-2.785412799683172
18,4.436304599501588
2,1, 1, 1, 0,22, 0.00,15.00,Tuesday
7,-1.5499999999999999
8,0.0
9,0.0
10,0.0
11,0.0
12,0.0
13,0.0
14,4.136829379849626
15,-2.8695758090898355
16,3.614607336691847
17,-2.49712293905651
18,4.4008455411831239
2,1, 1, 1, 0,22,15.00,30.00,Tuesday
7,-1.4
8,0.0
9,0.0
10,0.0
11,0.0
12,0.0
13,0.0
14,4.1393351463830359
15,-2.5341186208130477
16,3.6315231828585867
17,-2.272274635545841
18,4.378227934065255
2,1, 1, 1, 0,22,30.00,45.00,Tuesday
7,-1.25
8,0.0
9,0.0
10,0.0
11,0.0
12,0.0
13,0.0
14,4.1398956073127819
15,-2.3116402199404608
16,3.644220284826588
17,-2.107603355516858
18,4.366468452256067
2,1, 1, 1, 0,22,45.00,60.00,Tuesday
7,-1.1
8,0.0
9,0.0
10,0.0
11,0.0
12,0.0
13,0.0
14,4.144338517987344
15,-2.02486858196508
16,3.6627774163351889
17,-1.8879319305622176
18,4.360441611589673
2,1, 1, 1, 0,23, 0.00,15.00,Tuesday
7,-1.25
8,0.0
9,0.0
10,0.0
11,0.0
12,0.0
13,0.0
14,4.10348783308903
15,-2.3282930099532437
16,3.621405225139142
17,-2.202497631885535
18,4.350415761177106
2,1, 1, 1, 0,23,15.00,30.00,Tuesday
7,-1.4
8,0.0
9,0.0
10,0.0
11,0.0
12,0.0
13,0.0
14,4.066711196656611
15,-2.6327765022630524
16,3.56113681613823
17,-2.5191516455669218
18,4.331310174877503
2,1, 1, 1, 0,23,30.00,45.00,Tuesday
7,-1.5499999999999999
8,0.0
9,0.0
10,0.0
11,0.0
12,0.0
13,0.0
14,4.023880210551717
15,-2.93794995598756
16,3.500309297724243
17,-2.8354837858900057
18,4.303631069130154
2,1, 1, 1, 0,23,45.00,60.00,Tuesday
7,-1.7
8,0.0
9,0.0
10,0.0
11,0.0
12,0.0
13,0.0
14,3.9785962634896605
15,-3.2433806805965137
16,3.4351006882591266
17,-3.1519075238653615
18,4.269905161858141
2,1, 1, 1, 0,24, 0.00,15.00,Tuesday
7,-1.7
8,0.0
9,0.0
10,0.0
11,0.0
12,0.0
13,0.0
14,3.9501443837780885
15,-3.297222930665273
16,3.3965145817586519
17,-3.2101519336312096
18,4.235168203450026
2,1, 1, 1, 0,24,15.00,30.00,Tuesday
7,-1.7
8,0.0
9,0.0
10,0.0
11,0.0
12,0.0
13,0.0
14,3.9186663725705954
15,-3.351777854744562
16,3.3633284432108327
17,-3.2715658921750334
18,4.202292255455368
2,1, 1, 1, 0,24,30.00,45.00,Tuesday
7,-1.7
8,0.0
9,0.0
10,0.0
11,0.0
12,0.0
13,0.0
14,3.8879578840348945
15,-3.4061979793252417
16,3.329437310671665
17,-3.333192515488406
18,4.17145448423482
2,1, 1, 1, 0,24,45.00,60.00,Tuesday
7,-1.7
8,0.0
9,0.0
10,0.0
11,0.0
12,0.0
13,0.0
14,3.8578646083632659
15,-3.460620513789208
16,3.296232501708573
17,-3.394703038470368
18,4.141872714834793
End of Data
 Number of Records Written=        1152
