Program Version,EnergyPlus, Version 9.5.0-de239b2e5f, YMD=2023.02.16 18:16
1,5,Environment Title[],Latitude[deg],Longitude[deg],Time Zone[],Elevation[m]
2,8,Day of Simulation[],Month[],Day of Month[],DST Indicator[1=yes 0=no],Hour[],StartMinute[],EndMinute[],DayType
3,5,Cumulative Day of Simulation[],Month[],Day of Month[],DST Indicator[1=yes 0=no],DayType  ! When Daily Report Variables Requested
4,2,Cumulative Days of Simulation[],Month[]  ! When Monthly Report Variables Requested
5,1,Cumulative Days of Simulation[] ! When Run Period Report Variables Requested
6,1,Calendar Year of Simulation[] ! When Annual Report Variables Requested
7,1,Environment,Site Outdoor Air Drybulb Temperature [C] !TimeStep
8,1,ZONE ONE,Zone Windows Total Transmitted Solar Radiation Rate [W] !TimeStep
9,1,ZN001:WALL001,Surface Outside Face Sunlit Fraction [] !TimeStep
10,1,ZN001:WALL001,Surface Outside Face Incident Solar Radiation Rate per Area [W/m2] !TimeStep
11,1,ZN001:WALL001:WIN001,Surface Outside Face Sunlit Fraction [] !TimeStep
12,1,ZN001:WALL001:WIN001,Surface Outside Face Incident Solar Radiation Rate per Area [W/m2] !TimeStep
13,1,ZN001:WALL001:WIN001,Surface Window Transmitted Solar Radiation Rate [W] !TimeStep
14,1,ZN001:WALL001,Surface Inside Face Temperature [C] !TimeStep
15,1,ZN001:WALL001,Surface Outside Face Temperature [C] !TimeStep
16,1,ZN001:WALL001:WIN001,Surface Inside Face Temperature [C] !TimeStep
17,1,ZN001:WALL001:WIN001,Surface Outside Face Temperature [C] !TimeStep
18,1,ZONE ONE,Zone Mean Air Temperature [C] !TimeStep
End of Data Dictionary
1,RUN PERIOD 1,  41.98, -87.92,  -6.00, 201.00
2,1, 1, 1, 0, 1, 0.00,15.00,Tuesday
7,-4.324999999999999
8,0.0
9,0.0
10,0.0
11,0.0
12,0.0
13,0.0
14,2.6412808656955004
15,-5.955797186600194
16,2.1253205096929834
17,-5.840590602279349
18,3.0319611471362797
2,1, 1, 1, 0, 1,15.00,30.00,Tuesday
7,-6.949999999999999
8,0.0
9,0.0
10,0.0
11,0.0
12,0.0
13,0.0
14,2.4730097242797854
15,-8.423573028511674
16,1.810308382873984
17,-8.157823287943529
18,2.9564913594886348
2,1, 1, 1, 0, 1,30.00,45.00,Tuesday
7,-9.575
8,0.0
9,0.0
10,0.0
11,0.0
12,0.0
13,0.0
14,2.28796221711753
15,-10.899378367052597
16,1.4925731430063252
17,-10.482532330234222
18,2.852590660756523
2,1, 1, 1, 0, 1,45.00,60.00,Tuesday
7,-12.2
8,0.0
9,0.0
10,0.0
11,0.0
12,0.0
13,0.0
14,2.089338156267958
15,-13.381739987546708
16,1.1621177505360266
17,-12.825817620919566
18,2.72809343834137
2,1, 1, 1, 0, 2, 0.00,15.00,Tuesday
7,-12.075
8,0.0
9,0.0
10,0.0
11,0.0
12,0.0
13,0.0
14,2.040727962897304
15,-13.182988571425464
16,1.0640027084355098
17,-12.680042120130736
18,2.614068897027952
2,1, 1, 1, 0, 2,15.00,30.00,Tuesday
7,-11.95
8,0.0
9,0.0
10,0.0
11,0.0
12,0.0
13,0.0
14,1.977180930861269
15,-13.005578058464165
16,1.018074464626693
17,-12.494504552592958
18,2.526576303707876
2,1, 1, 1, 0, 2,30.00,45.00,Tuesday
7,-11.825
8,0.0
9,0.0
10,0.0
11,0.0
12,0.0
13,0.0
14,1.9281904431974504
15,-12.827071283973592
16,0.9763434553369734
17,-12.318005639283684
18,2.4624165660269199
2,1, 1, 1, 0, 2,45.00,60.00,Tuesday
7,-11.7
8,0.0
9,0.0
10,0.0
11,0.0
12,0.0
13,0.0
14,1.8890836794637998
15,-12.64862767011425
16,0.9463617776002593
17,-12.140711097484087
18,2.412729509538909
2,1, 1, 1, 0, 3, 0.00,15.00,Tuesday
7,-11.549999999999999
8,0.0
9,0.0
10,0.0
11,0.0
12,0.0
13,0.0
14,1.850945467816722
15,-12.523696054929479
16,0.9207006166918745
17,-12.013966715074503
18,2.3696083442033335
2,1, 1, 1, 0, 3,15.00,30.00,Tuesday
7,-11.399999999999999
8,0.0
9,0.0
10,0.0
11,0.0
12,0.0
13,0.0
14,1.8159190313643612
15,-12.400175848595487
16,0.8955362547364416
17,-11.881146093561768
18,2.3288462145707595
2,1, 1, 1, 0, 3,30.00,45.00,Tuesday
7,-11.25
8,0.0
9,0.0
10,0.0
11,0.0
12,0.0
13,0.0
14,1.7817384908393244
15,-12.278237008850182
16,0.8721497640245843
17,-11.748483929517306
18,2.2890683343476319
2,1, 1, 1, 0, 3,45.00,60.00,Tuesday
7,-11.1
8,0.0
9,0.0
10,0.0
11,0.0
12,0.0
13,0.0
14,1.7479767218592997
15,-12.157942694036775
16,0.8493657332659268
17,-11.616520262675636
18,2.2500175570375826
2,1, 1, 1, 0, 4, 0.00,15.00,Tuesday
7,-11.1
8,0.0
9,0.0
10,0.0
11,0.0
12,0.0
13,0.0
14,1.7110163639268797
15,-12.127674063589005
16,0.8137843159994418
17,-11.603104736339447
18,2.2113245024058658
2,1, 1, 1, 0, 4,15.00,30.00,Tuesday
7,-11.1
8,0.0
9,0.0
10,0.0
11,0.0
12,0.0
13,0.0
14,1.6744891160936287
15,-12.098566172408028
16,0.7791428084092331
17,-11.595143605661747
18,2.1727640095858207
2,1, 1, 1, 0, 4,30.00,45.00,Tuesday
7,-11.1
8,0.0
9,0.0
10,0.0
11,0.0
12,0.0
13,0.0
14,1.6379926633714384
15,-12.071075170739047
16,0.7447202029673008
17,-11.58774589842045
18,2.1342797222965874
2,1, 1, 1, 0, 4,45.00,60.00,Tuesday
7,-11.1
8,0.0
9,0.0
10,0.0
11,0.0
12,0.0
13,0.0
14,1.6015398658996432
15,-12.045071727751365
16,0.7103593156729176
17,-11.580663266757654
18,2.0958819990039529
2,1, 1, 1, 0, 5, 0.00,15.00,Tuesday
7,-10.975
8,0.0
9,0.0
10,0.0
11,0.0
12,0.0
13,0.0
14,1.5714213662641985
15,-11.922799785122415
16,0.6876599794336471
17,-11.473457768445372
18,2.05839634567605
2,1, 1, 1, 0, 5,15.00,30.00,Tuesday
7,-10.85
8,0.0
9,0.0
10,0.0
11,0.0
12,0.0
13,0.0
14,1.540432405197047
15,-11.800658589433429
16,0.6662826333953262
17,-11.359917379395199
18,2.022140182638479
2,1, 1, 1, 0, 5,30.00,45.00,Tuesday
7,-10.725
8,0.0
9,0.0
10,0.0
11,0.0
12,0.0
13,0.0
14,1.5103136429031919
15,-11.678463139192808
16,0.6450500660053535
17,-11.24598299664035
18,1.9869141611261998
2,1, 1, 1, 0, 5,45.00,60.00,Tuesday
7,-10.6
8,0.0
9,0.0
10,0.0
11,0.0
12,0.0
13,0.0
14,1.480847236167159
15,-11.556283091341929
16,0.624530368473188
17,-11.131975162902166
18,1.95244433051836
2,1, 1, 1, 0, 6, 0.00,15.00,Tuesday
7,-10.6
8,0.0
9,0.0
10,0.0
11,0.0
12,0.0
13,0.0
14,1.443303170366491
15,-11.557031034351839
16,0.5894231595307247
17,-11.129994117721026
18,1.917379491654489
2,1, 1, 1, 0, 6,15.00,30.00,Tuesday
7,-10.6
8,0.0
9,0.0
10,0.0
11,0.0
12,0.0
13,0.0
14,1.4073560051415413
15,-11.55766766673506
16,0.5547408536471039
17,-11.131377698889424
18,1.8810992825948004
2,1, 1, 1, 0, 6,30.00,45.00,Tuesday
7,-10.6
8,0.0
9,0.0
10,0.0
11,0.0
12,0.0
13,0.0
14,1.3707984096660587
15,-11.55838271220916
16,0.5205015439917702
17,-11.133606899092172
18,1.843858532407514
2,1, 1, 1, 0, 6,45.00,60.00,Tuesday
7,-10.6
8,0.0
9,0.0
10,0.0
11,0.0
12,0.0
13,0.0
14,1.3339347972952902
15,-11.559092768483432
16,0.48580419379408115
17,-11.136130103535152
18,1.8061024533077284
2,1, 1, 1, 0, 7, 0.00,15.00,Tuesday
7,-10.6
8,0.0
9,0.0
10,0.0
11,0.0
12,0.0
13,0.0
14,1.2992761688673898
15,-11.5341469898988
16,0.4525719728646891
17,-11.13086338830135
18,1.7685570389454584
2,1, 1, 1, 0, 7,15.00,30.00,Tuesday
7,-10.6
8,0.0
9,0.0
10,0.0
11,0.0
12,0.0
13,0.0
14,1.2644652115575559
15,-11.510491187124784
16,0.4201259117152176
17,-11.123844027420603
18,1.7315809761735018
2,1, 1, 1, 0, 7,30.00,45.00,Tuesday
7,-10.6
8,0.0
9,0.0
10,0.0
11,0.0
12,0.0
13,0.0
14,1.2299403788051664
15,-11.488034720476488
16,0.38761499306031058
17,-11.116630484925736
18,1.6951278054558333
2,1, 1, 1, 0, 7,45.00,60.00,Tuesday
7,-10.6
8,0.0
9,0.0
10,0.0
11,0.0
12,0.0
13,0.0
14,1.1957038155647276
15,-11.466707117456611
16,0.3553671368678124
17,-11.10953810005509
18,1.659048593327826
2,1, 1, 1, 0, 8, 0.00,15.00,Tuesday
7,-10.45
8,0.0
9,0.0
10,0.0
11,0.0
12,0.0
13,0.0
14,1.1604248155504407
15,-11.41848933109166
16,0.3289003261493235
17,-11.069079571082
18,1.6226667476632729
2,1, 1, 1, 0, 8,15.00,30.00,Tuesday
7,-10.3
8,71.56792871975249
9,1.0
10,22.819555959623899
11,1.0
12,22.819555959623899
13,71.56792871975249
14,1.228213513709988
15,-9.745688434759709
16,0.7452350678256607
17,-10.706696424804136
18,1.6004603051230584
2,1, 1, 1, 0, 8,30.00,45.00,Tuesday
7,-10.15
8,354.0299290602728
9,1.0
10,109.75755355442667
11,1.0
12,109.75755355442667
13,354.0299290602728
14,1.5758371261751104
15,-3.384695306929107
16,2.5370985677079718
17,-9.392897404433882
18,1.6310384473542695
2,1, 1, 1, 0, 8,45.00,60.00,Tuesday
7,-10.0
8,650.8026061160458
9,1.0
10,195.8764694434918
11,1.0
12,195.8764694434918
13,650.8026061160458
14,1.9987211060201274
15,3.100436539181493
16,4.190580748721231
17,-8.090615058418507
18,1.7245020775692688
2,1, 1, 1, 0, 9, 0.00,15.00,Tuesday
7,-9.725
8,953.3043628211269
9,1.0
10,278.97248314719988
11,1.0
12,278.97248314719988
13,953.3043628211269
14,2.3490593567231339
15,8.28734368574179
16,5.699677878278692
17,-6.967246166987252
18,1.871519325144978
2,1, 1, 1, 0, 9,15.00,30.00,Tuesday
7,-9.45
8,1278.5481108613147
9,1.0
10,364.91995730569456
11,1.0
12,364.91995730569456
13,1278.5481108613147
14,2.7332852925464015
15,13.364596649476983
16,7.202827395365716
17,-5.8663148975796279
18,2.0579209042757355
2,1, 1, 1, 0, 9,30.00,45.00,Tuesday
7,-9.175
8,1501.6689651177185
9,1.0
10,420.35879993239237
11,1.0
12,420.35879993239237
13,1501.6689651177185
14,2.986057478678936
15,16.123563841900947
16,8.21327548477791
17,-5.206034767438041
18,2.263965139497926
2,1, 1, 1, 0, 9,45.00,60.00,Tuesday
7,-8.9
8,1735.1383193393602
9,1.0
10,478.00138373643099
11,1.0
12,478.00138373643099
13,1735.1383193393602
14,3.28624646940393
15,19.11877924890119
16,9.218234051105697
17,-4.514987464054798
18,2.48246441261514
2,1, 1, 1, 0,10, 0.00,15.00,Tuesday
7,-8.350000000000002
8,1975.0591100537159
9,1.0
10,536.9185644770597
11,1.0
12,536.9185644770597
13,1975.0591100537159
14,3.5266299795927318
15,20.23791514288094
16,10.257162808818123
17,-3.7097870143481375
18,2.717597556675505
2,1, 1, 1, 0,10,15.00,30.00,Tuesday
7,-7.800000000000001
8,2223.9470947223846
9,1.0
10,598.0969199229219
11,1.0
12,598.0969199229219
13,2223.9470947223846
14,3.792731682939335
15,21.492272733332439
16,11.32474221569123
17,-2.9270844479230506
18,2.9667814828444079
2,1, 1, 1, 0,10,30.00,45.00,Tuesday
7,-7.25
8,2391.940481956653
9,1.0
10,637.6133352894237
11,1.0
12,637.6133352894237
13,2391.940481956653
14,3.990217725883608
15,21.553092670610476
16,12.08200259672276
17,-2.391066642695364
18,3.215799314445231
2,1, 1, 1, 0,10,45.00,60.00,Tuesday
7,-6.7
8,2557.310342406259
9,1.0
10,676.6412284283772
11,1.0
12,676.6412284283772
13,2557.310342406259
14,4.203599064573496
15,21.714171122151578
16,12.808216096790659
17,-1.831915804769153
18,3.456208773996404
2,1, 1, 1, 0,11, 0.00,15.00,Tuesday
7,-6.275
8,2719.427216426026
9,1.0
10,715.0112779846514
11,1.0
12,715.0112779846514
13,2719.427216426026
14,4.493188427224534
15,23.811614314027659
16,13.535316563073934
17,-1.1018933701783454
18,3.6913095192003255
2,1, 1, 1, 0,11,15.00,30.00,Tuesday
7,-5.85
8,2877.417086129279
9,1.0
10,752.5077794605232
11,1.0
12,752.5077794605232
13,2877.417086129279
14,4.768274436110834
15,25.746310230712209
16,14.249903915236587
17,-0.3843730381086061
18,3.9259191507723316
2,1, 1, 1, 0,11,30.00,45.00,Tuesday
7,-5.425
8,2835.5349808371727
9,1.0
10,742.5988714321785
11,1.0
12,742.5988714321785
13,2835.5349808371727
14,4.919599686016744
15,25.59788753886922
16,14.318734447582529
17,-0.08336572102007267
18,4.145073259116207
2,1, 1, 1, 0,11,45.00,60.00,Tuesday
7,-5.0
8,2772.923910988253
9,1.0
10,727.8169025450712
11,1.0
12,727.8169025450712
13,2772.923910988253
14,5.06653420599828
15,25.36833540021104
16,14.290465856483479
17,0.18585895860252323
18,4.338438879848893
2,1, 1, 1, 0,12, 0.00,15.00,Tuesday
7,-4.575
8,2664.822954671648
9,1.0
10,700.3759009170325
11,1.0
12,700.3759009170325
13,2664.822954671648
14,5.1636599824857198
15,24.62541015729253
16,14.077620857180023
17,0.3919574492546758
18,4.5011481286230679
2,1, 1, 1, 0,12,15.00,30.00,Tuesday
7,-4.15
8,2580.894828475442
9,1.0
10,681.6705029034473
11,1.0
12,681.6705029034473
13,2580.894828475442
14,5.279697469903908
15,24.294687462108933
16,13.971631315961247
17,0.6769915287362665
18,4.640262332252404
2,1, 1, 1, 0,12,30.00,45.00,Tuesday
7,-3.7249999999999998
8,2259.3077124563117
9,1.0
10,602.01865277251
11,1.0
12,602.01865277251
13,2259.3077124563117
14,5.18822678484548
15,21.266047139847719
16,13.018386216670308
17,0.4663657776384298
18,4.738841425222968
2,1, 1, 1, 0,12,45.00,60.00,Tuesday
7,-3.3
8,1841.4287184027517
9,1.0
10,493.55004396206007
11,1.0
12,493.55004396206007
13,1841.4287184027517
14,4.996588145227579
15,17.087072105324546
16,11.551292685330907
17,-0.033018499690228967
18,4.781155503302353
2,1, 1, 1, 0,13, 0.00,15.00,Tuesday
7,-3.0249999999999996
8,1510.1870283450449
9,1.0
10,412.335026418112
11,1.0
12,412.335026418112
13,1510.1870283450449
14,4.869591677224155
15,14.241959040093585
16,10.40464139320818
17,-0.35682663900627178
18,4.7729086853599889
2,1, 1, 1, 0,13,15.00,30.00,Tuesday
7,-2.75
8,1097.5186598189753
9,1.0
10,305.94037763660148
11,1.0
12,305.94037763660148
13,1097.5186598189753
14,4.612366439415029
15,10.066551384350776
16,8.834143893278224
17,-0.9248045479640155
18,4.716811545633324
2,1, 1, 1, 0,13,30.00,45.00,Tuesday
7,-2.475
8,997.8347210574955
9,1.0
10,281.0763483922329
11,1.0
12,281.0763483922329
13,997.8347210574955
14,4.590565222320353
15,9.557269376704764
16,8.43169498264865
17,-0.7959876207618208
18,4.649182196893556
2,1, 1, 1, 0,13,45.00,60.00,Tuesday
7,-2.2
8,900.1994191962868
9,1.0
10,256.7721209415886
11,1.0
12,256.7721209415886
13,900.1994191962868
14,4.553372998121076
15,8.949137441082119
16,8.082936132457406
17,-0.644798875449851
18,4.594138591626505
2,1, 1, 1, 0,14, 0.00,15.00,Tuesday
7,-1.9250000000000003
8,732.8655907144981
9,1.0
10,210.73276284570657
11,1.0
12,210.73276284570657
13,732.8655907144981
14,4.444889272867369
15,7.400037777015273
16,7.364233848624906
17,-0.7426941737429615
18,4.546001943173397
2,1, 1, 1, 0,14,15.00,30.00,Tuesday
7,-1.6500000000000002
8,646.3774883140063
9,1.0
10,189.38488290342594
11,1.0
12,189.38488290342594
13,646.3774883140063
14,4.423132012137322
15,6.996145815490498
16,7.020280954388113
17,-0.6268284712514856
18,4.5045834150941419
2,1, 1, 1, 0,14,30.00,45.00,Tuesday
7,-1.375
8,617.9858986324632
9,1.0
10,179.3940297802914
11,1.0
12,179.3940297802914
13,617.9858986324632
14,4.420075143428098
15,7.115838915745471
16,6.872009357752745
17,-0.4038940901799606
18,4.471984322579585
2,1, 1, 1, 0,14,45.00,60.00,Tuesday
7,-1.1
8,588.6932238625436
9,1.0
10,169.43349014176136
11,1.0
12,169.43349014176136
13,588.6932238625436
14,4.416503081425326
15,7.213629859115596
16,6.722739479943698
17,-0.18127938710733816
18,4.447249243056038
2,1, 1, 1, 0,15, 0.00,15.00,Tuesday
7,-1.1
8,618.6771475466255
9,1.0
10,178.15692317953907
11,1.0
12,178.15692317953907
13,618.6771475466255
14,4.461908907577384
15,8.029404338451727
16,6.864775303423812
17,-0.058800324037861177
18,4.433225560692286
2,1, 1, 1, 0,15,15.00,30.00,Tuesday
7,-1.1
8,581.0506986351386
9,1.0
10,166.40516310952945
11,1.0
12,166.40516310952945
13,581.0506986351386
14,4.4288987369107259
15,7.665425341573287
16,6.67511425131238
17,-0.14824897695871187
18,4.422193922148153
2,1, 1, 1, 0,15,30.00,45.00,Tuesday
7,-1.1
8,487.62380365139259
9,1.0
10,140.8967369711617
11,1.0
12,140.8967369711617
13,487.62380365139259
14,4.334298059505611
15,6.454042923851703
16,6.231982240782486
17,-0.4234591114022237
18,4.402039891589606
2,1, 1, 1, 0,15,45.00,60.00,Tuesday
7,-1.1
8,399.16345704405486
9,1.0
10,116.57355796743004
11,1.0
12,116.57355796743004
13,399.16345704405486
14,4.245902995241553
15,5.248926835842937
16,5.784206347138934
17,-0.7035135695908821
18,4.36662411122543
2,1, 1, 1, 0,16, 0.00,15.00,Tuesday
7,-1.1
8,315.01856693619978
9,1.0
10,93.14939272689483
11,1.0
12,93.14939272689483
13,315.01856693619978
14,4.160720435414094
15,4.193425996157506
16,5.341063486143639
17,-0.9173741026075959
18,4.316964170148527
2,1, 1, 1, 0,16,15.00,30.00,Tuesday
7,-1.1
8,194.46754305814083
9,1.0
10,57.94047897402063
11,1.0
12,57.94047897402063
13,194.46754305814083
14,4.0011999594355009
15,2.065104702663477
16,4.645682745356908
17,-1.3352686259013922
18,4.249355181175149
2,1, 1, 1, 0,16,30.00,45.00,Tuesday
7,-1.1
8,149.82451960460407
9,1.0
10,45.38251793443488
11,1.0
12,45.38251793443488
13,149.82451960460407
14,3.9384249679641916
15,1.4487066212465647
16,4.332173554809401
17,-1.465847297768164
18,4.173057685854056
2,1, 1, 1, 0,16,45.00,60.00,Tuesday
7,-1.1
8,104.00572991011612
9,1.0
10,32.02625108222755
11,1.0
12,32.02625108222755
13,104.00572991011612
14,3.845040542560688
15,0.5794536694795567
16,4.01205963824259
17,-1.6260151214173675
18,4.0953785825335509
2,1, 1, 1, 0,17, 0.00,15.00,Tuesday
7,-1.1
8,56.8254897678188
9,1.0
10,17.762198626050539
11,1.0
12,17.762198626050539
13,56.8254897678188
14,3.724774870638901
15,-0.6802302383345276
16,3.6595556823754125
17,-1.9276693923969788
18,4.013532712710799
2,1, 1, 1, 0,17,15.00,30.00,Tuesday
7,-1.1
8,0.0
9,0.0
10,0.0
11,0.0
12,0.0
13,0.0
14,3.5579024908331329
15,-2.5210738432932175
16,3.2393563463270995
17,-2.2426783614804437
18,3.917664307466782
2,1, 1, 1, 0,17,30.00,45.00,Tuesday
7,-1.1
8,0.0
9,0.0
10,0.0
11,0.0
12,0.0
13,0.0
14,3.509442367870546
15,-2.6609587870405866
16,3.1415613023232256
17,-2.3248351572631806
18,3.8228371739433806
2,1, 1, 1, 0,17,45.00,60.00,Tuesday
7,-1.1
8,0.0
9,0.0
10,0.0
11,0.0
12,0.0
13,0.0
14,3.44732044335095
15,-2.8585926710135687
16,3.0823311625946419
17,-2.4221551563711047
18,3.74275460472241
2,1, 1, 1, 0,18, 0.00,15.00,Tuesday
7,-1.25
8,0.0
9,0.0
10,0.0
11,0.0
12,0.0
13,0.0
14,3.3968154036912359
15,-3.0055424540923
16,3.0135013099751406
17,-2.5757619910288556
18,3.679792963272475
2,1, 1, 1, 0,18,15.00,30.00,Tuesday
7,-1.4
8,0.0
9,0.0
10,0.0
11,0.0
12,0.0
13,0.0
14,3.3515753182256176
15,-3.1578445569100457
16,2.9631229662168154
17,-2.716542910508224
18,3.6299159179911397
2,1, 1, 1, 0,18,30.00,45.00,Tuesday
7,-1.5499999999999999
8,0.0
9,0.0
10,0.0
11,0.0
12,0.0
13,0.0
14,3.3118888952603218
15,-3.30955314051599
16,2.912777701137486
17,-2.861665424939531
18,3.5881849660268978
2,1, 1, 1, 0,18,45.00,60.00,Tuesday
7,-1.7
8,0.0
9,0.0
10,0.0
11,0.0
12,0.0
13,0.0
14,3.273727755591051
15,-3.461495325335256
16,2.8661426981958586
17,-3.0061846443076094
18,3.5509417767434288
2,1, 1, 1, 0,19, 0.00,15.00,Tuesday
7,-1.825
8,0.0
9,0.0
10,0.0
11,0.0
12,0.0
13,0.0
14,3.262604390020638
15,-3.303736072834764
16,2.835105910246739
17,-2.9872509197808769
18,3.5197748057055389
2,1, 1, 1, 0,19,15.00,30.00,Tuesday
7,-1.9500000000000002
8,0.0
9,0.0
10,0.0
11,0.0
12,0.0
13,0.0
14,3.2510392650976827
15,-3.2285361342782465
16,2.813813775837616
17,-2.998827857186143
18,3.496225008707102
2,1, 1, 1, 0,19,30.00,45.00,Tuesday
7,-2.075
8,0.0
9,0.0
10,0.0
11,0.0
12,0.0
13,0.0
14,3.2347965646648579
15,-3.2999732031888775
16,2.795561954776531
17,-3.0876688690672156
18,3.478612862305524
2,1, 1, 1, 0,19,45.00,60.00,Tuesday
7,-2.2
8,0.0
9,0.0
10,0.0
11,0.0
12,0.0
13,0.0
14,3.22190990861074
15,-3.270363387921951
16,2.7806935225983127
17,-3.118181823267605
18,3.463927512229027
2,1, 1, 1, 0,20, 0.00,15.00,Tuesday
7,-1.9250000000000003
8,0.0
9,0.0
10,0.0
11,0.0
12,0.0
13,0.0
14,3.224515505726434
15,-2.9673095837613499
16,2.797206281675926
17,-2.842572613722041
18,3.4515798401714825
2,1, 1, 1, 0,20,15.00,30.00,Tuesday
7,-1.6500000000000002
8,0.0
9,0.0
10,0.0
11,0.0
12,0.0
13,0.0
14,3.2271061528448667
15,-2.6674637405460768
16,2.8176860696808605
17,-2.567854924733979
18,3.4416317474809756
2,1, 1, 1, 0,20,30.00,45.00,Tuesday
7,-1.375
8,0.0
9,0.0
10,0.0
11,0.0
12,0.0
13,0.0
14,3.230946924772354
15,-2.368978278628821
16,2.839119121502108
17,-2.293200811349152
18,3.4338066594017149
2,1, 1, 1, 0,20,45.00,60.00,Tuesday
7,-1.1
8,0.0
9,0.0
10,0.0
11,0.0
12,0.0
13,0.0
14,3.235987111534072
15,-2.07183721620486
16,2.8618120084373119
17,-2.018585449962643
18,3.4276692676120659
2,1, 1, 1, 0,21, 0.00,15.00,Tuesday
7,-1.25
8,0.0
9,0.0
10,0.0
11,0.0
12,0.0
13,0.0
14,3.1983223162548146
15,-2.3603823996453796
16,2.832171616252822
17,-2.243141242170111
18,3.417526953706403
2,1, 1, 1, 0,21,15.00,30.00,Tuesday
7,-1.4
8,0.0
9,0.0
10,0.0
11,0.0
12,0.0
13,0.0
14,3.1599379091298767
15,-2.58087057123078
16,2.7914566655709338
17,-2.4114472294254485
18,3.398726230021977
2,1, 1, 1, 0,21,30.00,45.00,Tuesday
7,-1.5499999999999999
8,0.0
9,0.0
10,0.0
11,0.0
12,0.0
13,0.0
14,3.108805438859754
15,-2.9348715736733426
16,2.7363711368661827
17,-2.6624401771108525
18,3.3697872109930926
2,1, 1, 1, 0,21,45.00,60.00,Tuesday
7,-1.7
8,0.0
9,0.0
10,0.0
11,0.0
12,0.0
13,0.0
14,3.0523125226839999
15,-3.397876305182949
16,2.6696040593841419
17,-2.945444867070762
18,3.3323060582505259
2,1, 1, 1, 0,22, 0.00,15.00,Tuesday
7,-1.5499999999999999
8,0.0
9,0.0
10,0.0
11,0.0
12,0.0
13,0.0
14,3.0673483163200059
15,-2.897127938840272
16,2.664033305631847
17,-2.636497766868956
18,3.2996473218713708
2,1, 1, 1, 0,22,15.00,30.00,Tuesday
7,-1.4
8,0.0
9,0.0
10,0.0
11,0.0
12,0.0
13,0.0
14,3.073698567038236
15,-2.5579425871299548
16,2.6837986994456175
17,-2.3975658675007027
18,3.279596032333551
2,1, 1, 1, 0,22,30.00,45.00,Tuesday
7,-1.25
8,0.0
9,0.0
10,0.0
11,0.0
12,0.0
13,0.0
14,3.0777739652500579
15,-2.3338047112163089
16,2.6986203281255145
17,-2.2199699373306887
18,3.270394160390307
2,1, 1, 1, 0,22,45.00,60.00,Tuesday
7,-1.1
8,0.0
9,0.0
10,0.0
11,0.0
12,0.0
13,0.0
14,3.0856445553578246
15,-2.044035406577701
16,2.720346082843662
17,-1.9941763952712109
18,3.267102168819256
2,1, 1, 1, 0,23, 0.00,15.00,Tuesday
7,-1.25
8,0.0
9,0.0
10,0.0
11,0.0
12,0.0
13,0.0
14,3.048870618710593
15,-2.3475619783882766
16,2.683917394482023
17,-2.3108767078010148
18,3.26035916693965
2,1, 1, 1, 0,23,15.00,30.00,Tuesday
7,-1.4
8,0.0
9,0.0
10,0.0
11,0.0
12,0.0
13,0.0
14,3.013413282101327
15,-2.6520880572056946
16,2.6285980679742808
17,-2.628709057593312
18,3.244833052001105
2,1, 1, 1, 0,23,30.00,45.00,Tuesday
7,-1.5499999999999999
8,0.0
9,0.0
10,0.0
11,0.0
12,0.0
13,0.0
14,2.973415906702959
15,-2.957175071685095
16,2.5719027093052775
17,-2.9462994430885489
18,3.22071984245086
2,1, 1, 1, 0,23,45.00,60.00,Tuesday
7,-1.7
8,0.0
9,0.0
10,0.0
11,0.0
12,0.0
13,0.0
14,2.930914887883428
15,-3.2625761465946576
16,2.5113874485446674
17,-3.2639208893480715
18,3.1904227321691907
2,1, 1, 1, 0,24, 0.00,15.00,Tuesday
7,-1.7
8,0.0
9,0.0
10,0.0
11,0.0
12,0.0
13,0.0
14,2.905482451733099
15,-3.31632557086422
16,2.475911878985926
17,-3.3216115163311317
18,3.1588919811956379
2,1, 1, 1, 0,24,15.00,30.00,Tuesday
7,-1.7
8,0.0
9,0.0
10,0.0
11,0.0
12,0.0
13,0.0
14,2.8770302038001596
15,-3.370828989648275
16,2.445835627070096
17,-3.3828908087365336
18,3.1290407852003625
2,1, 1, 1, 0,24,30.00,45.00,Tuesday
7,-1.7
8,0.0
9,0.0
10,0.0
11,0.0
12,0.0
13,0.0
14,2.8492449601115825
15,-3.4252001606179478
16,2.415001420225167
17,-3.4443865231542079
18,3.101139444252815
2,1, 1, 1, 0,24,45.00,60.00,Tuesday
7,-1.7
8,0.0
9,0.0
10,0.0
11,0.0
12,0.0
13,0.0
14,2.8220272473259557
15,-3.479572457651687
16,2.3847787630544419
17,-3.5057794973147908
18,3.074472985598269
End of Data
 Number of Records Written=        1152
