Program Version,EnergyPlus, Version 9.5.0-de239b2e5f, YMD=2023.02.16 18:15
1,5,Environment Title[],Latitude[deg],Longitude[deg],Time Zone[],Elevation[m]
2,8,Day of Simulation[],Month[],Day of Month[],DST Indicator[1=yes 0=no],Hour[],StartMinute[],EndMinute[],DayType
3,5,Cumulative Day of Simulation[],Month[],Day of Month[],DST Indicator[1=yes 0=no],DayType  ! When Daily Report Variables Requested
4,2,Cumulative Days of Simulation[],Month[]  ! When Monthly Report Variables Requested
5,1,Cumulative Days of Simulation[] ! When Run Period Report Variables Requested
6,1,Calendar Year of Simulation[] ! When Annual Report Variables Requested
7,1,Environment,Site Outdoor Air Drybulb Temperature [C] !TimeStep
8,1,ZONE ONE,Zone Windows Total Transmitted Solar Radiation Rate [W] !TimeStep
9,1,ZN001:WALL001,Surface Outside Face Sunlit Fraction [] !TimeStep
10,1,ZN001:WALL001,Surface Outside Face Incident Solar Radiation Rate per Area [W/m2] !TimeStep
11,1,ZN001:WALL001:WIN001,Surface Outside Face Sunlit Fraction [] !TimeStep
12,1,ZN001:WALL001:WIN001,Surface Outside Face Incident Solar Radiation Rate per Area [W/m2] !TimeStep
13,1,ZN001:WALL001:WIN001,Surface Window Transmitted Solar Radiation Rate [W] !TimeStep
14,1,ZN001:WALL001,Surface Inside Face Temperature [C] !TimeStep
15,1,ZN001:WALL001,Surface Outside Face Temperature [C] !TimeStep
16,1,ZN001:WALL001:WIN001,Surface Inside Face Temperature [C] !TimeStep
17,1,ZN001:WALL001:WIN001,Surface Outside Face Temperature [C] !TimeStep
18,1,ZONE ONE,Zone Mean Air Temperature [C] !TimeStep
End of Data Dictionary
1,RUN PERIOD 1,  41.98, -87.92,  -6.00, 201.00
2,1, 1, 1, 0, 1, 0.00,15.00,Tuesday
7,-4.324999999999999
8,0.0
9,0.0
10,0.0
11,0.0
12,0.0
13,0.0
14,1.4665494290261426
15,-5.977263102293395
16,0.9213528023850586
17,-5.852912789155766
18,1.8219478691134666
2,1, 1, 1, 0, 1,15.00,30.00,Tuesday
7,-6.949999999999999
8,0.0
9,0.0
10,0.0
11,0.0
12,0.0
13,0.0
14,1.2988175117438925
15,-8.445172284873327
16,0.5779887138087361
17,-8.14964173893452
18,1.7489588801081782
2,1, 1, 1, 0, 1,30.00,45.00,Tuesday
7,-9.575
8,0.0
9,0.0
10,0.0
11,0.0
12,0.0
13,0.0
14,1.1142472531213504
15,-10.92125251761576
16,0.23282959130614246
17,-10.453704801096876
18,1.6468180232493326
2,1, 1, 1, 0, 1,45.00,60.00,Tuesday
7,-12.2
8,0.0
9,0.0
10,0.0
11,0.0
12,0.0
13,0.0
14,0.9159827849638924
15,-13.403878069119179
16,-0.12447370522187384
17,-12.776694559201076
18,1.5233654747960395
2,1, 1, 1, 0, 2, 0.00,15.00,Tuesday
7,-12.075
8,0.0
9,0.0
10,0.0
11,0.0
12,0.0
13,0.0
14,0.869867950905369
15,-13.205327393226869
16,-0.21755836546526553
17,-12.63404414699653
18,1.4101989609915798
2,1, 1, 1, 0, 2,15.00,30.00,Tuesday
7,-11.95
8,0.0
9,0.0
10,0.0
11,0.0
12,0.0
13,0.0
14,0.8085123916743483
15,-13.02786801998468
16,-0.25876493575350426
17,-12.450453165787849
18,1.3238058863254623
2,1, 1, 1, 0, 2,30.00,45.00,Tuesday
7,-11.825
8,0.0
9,0.0
10,0.0
11,0.0
12,0.0
13,0.0
14,0.7618194954313186
15,-12.849294055373849
16,-0.29569386556818247
17,-12.27596385998362
18,1.2611935571176747
2,1, 1, 1, 0, 2,45.00,60.00,Tuesday
7,-11.7
8,0.0
9,0.0
10,0.0
11,0.0
12,0.0
13,0.0
14,0.7251734452340279
15,-12.670777846363033
16,-0.32077424548026559
17,-12.10055983234804
18,1.21350026332419
2,1, 1, 1, 0, 3, 0.00,15.00,Tuesday
7,-11.549999999999999
8,0.0
9,0.0
10,0.0
11,0.0
12,0.0
13,0.0
14,0.6895452834042521
15,-12.5463907706185
16,-0.34178846212012106
17,-11.974599333835556
18,1.172713993902371
2,1, 1, 1, 0, 3,15.00,30.00,Tuesday
7,-11.399999999999999
8,0.0
9,0.0
10,0.0
11,0.0
12,0.0
13,0.0
14,0.6571489127069597
15,-12.42343751338316
16,-0.3623007954490731
17,-11.842526419747515
18,1.134501711681144
2,1, 1, 1, 0, 3,30.00,45.00,Tuesday
7,-11.25
8,0.0
9,0.0
10,0.0
11,0.0
12,0.0
13,0.0
14,0.6256745000277666
15,-12.302093923901227
16,-0.3809814950988084
17,-11.710583112432915
18,1.097393576564008
2,1, 1, 1, 0, 3,45.00,60.00,Tuesday
7,-11.1
8,0.0
9,0.0
10,0.0
11,0.0
12,0.0
13,0.0
14,0.5956509803927796
15,-12.182424288500038
16,-0.39902280682582616
17,-11.579349770044815
18,1.0612002109243393
2,1, 1, 1, 0, 4, 0.00,15.00,Tuesday
7,-11.1
8,0.0
9,0.0
10,0.0
11,0.0
12,0.0
13,0.0
14,0.5604555317953672
15,-12.151441181970462
16,-0.4315335596179466
17,-11.566572443939436
18,1.0253402961812386
2,1, 1, 1, 0, 4,15.00,30.00,Tuesday
7,-11.1
8,0.0
9,0.0
10,0.0
11,0.0
12,0.0
13,0.0
14,0.5267997089570061
15,-12.121571478902025
16,-0.4650249678133491
17,-11.562936255250634
18,0.989569496363127
2,1, 1, 1, 0, 4,30.00,45.00,Tuesday
7,-11.1
8,0.0
9,0.0
10,0.0
11,0.0
12,0.0
13,0.0
14,0.4930713122063117
15,-12.093401666080802
16,-0.4960880336939226
17,-11.556988630812328
18,0.9538579998364509
2,1, 1, 1, 0, 4,45.00,60.00,Tuesday
7,-11.1
8,0.0
9,0.0
10,0.0
11,0.0
12,0.0
13,0.0
14,0.4593763741399258
15,-12.0667476387697
16,-0.5274064661742273
17,-11.550867910092393
18,0.9182329978000885
2,1, 1, 1, 0, 5, 0.00,15.00,Tuesday
7,-10.975
8,0.0
9,0.0
10,0.0
11,0.0
12,0.0
13,0.0
14,0.43204633668436545
15,-11.944403616546058
16,-0.5440792764168236
17,-11.441263247237544
18,0.883489926915419
2,1, 1, 1, 0, 5,15.00,30.00,Tuesday
7,-10.85
8,0.0
9,0.0
10,0.0
11,0.0
12,0.0
13,0.0
14,0.40386133319003156
15,-11.82219685873315
16,-0.5610152297795139
17,-11.328706654957728
18,0.8499780770199176
2,1, 1, 1, 0, 5,30.00,45.00,Tuesday
7,-10.725
8,0.0
9,0.0
10,0.0
11,0.0
12,0.0
13,0.0
14,0.37653513567060417
15,-11.699937608033303
16,-0.5777916663193992
17,-11.21593942310227
18,0.8175205098901958
2,1, 1, 1, 0, 5,45.00,60.00,Tuesday
7,-10.6
8,0.0
9,0.0
10,0.0
11,0.0
12,0.0
13,0.0
14,0.34986864590267216
15,-11.577693108005299
16,-0.5938555389365092
17,-11.10309957486254
18,0.7858443933495519
2,1, 1, 1, 0, 6, 0.00,15.00,Tuesday
7,-10.6
8,0.0
9,0.0
10,0.0
11,0.0
12,0.0
13,0.0
14,0.3150591107236785
15,-11.578400519402326
16,-0.625358370377171
17,-11.101038039652224
18,0.7535905834460137
2,1, 1, 1, 0, 6,15.00,30.00,Tuesday
7,-10.6
8,0.0
9,0.0
10,0.0
11,0.0
12,0.0
13,0.0
14,0.2817864859349939
15,-11.578987347193744
16,-0.657149577446603
17,-11.10251142937625
18,0.7201160815191018
2,1, 1, 1, 0, 6,30.00,45.00,Tuesday
7,-10.6
8,0.0
9,0.0
10,0.0
11,0.0
12,0.0
13,0.0
14,0.24791352627894645
15,-11.579651450423367
16,-0.6884694575498997
17,-11.104836962017714
18,0.6856566013546096
2,1, 1, 1, 0, 6,45.00,60.00,Tuesday
7,-10.6
8,0.0
9,0.0
10,0.0
11,0.0
12,0.0
13,0.0
14,0.21372323472810043
15,-11.58031129450855
16,-0.7202277972393176
17,-11.107471075161414
18,0.6506536279236193
2,1, 1, 1, 0, 7, 0.00,15.00,Tuesday
7,-10.6
8,0.0
9,0.0
10,0.0
11,0.0
12,0.0
13,0.0
14,0.18276605103149558
15,-11.554758897085904
16,-0.7504554511153856
17,-11.102796070925593
18,0.6159566322362636
2,1, 1, 1, 0, 7,15.00,30.00,Tuesday
7,-10.6
8,0.0
9,0.0
10,0.0
11,0.0
12,0.0
13,0.0
14,0.15067653647041633
15,-11.53055936334569
16,-0.7795304679353876
17,-11.096398373706223
18,0.5818895343930659
2,1, 1, 1, 0, 7,30.00,45.00,Tuesday
7,-10.6
8,0.0
9,0.0
10,0.0
11,0.0
12,0.0
13,0.0
14,0.11895792566912236
15,-11.507549885368939
16,-0.8090057603910168
17,-11.089854888360947
18,0.548326507139471
2,1, 1, 1, 0, 7,45.00,60.00,Tuesday
7,-10.6
8,0.0
9,0.0
10,0.0
11,0.0
12,0.0
13,0.0
14,0.08750694557987485
15,-11.485699091017939
16,-0.8381880084012323
17,-11.083398466244262
18,0.5150908791379977
2,1, 1, 1, 0, 8, 0.00,15.00,Tuesday
7,-10.45
8,0.0
9,0.0
10,0.0
11,0.0
12,0.0
13,0.0
14,0.05393571871510223
15,-11.437909700750762
16,-0.8618481761859584
17,-11.043279915999051
18,0.48139734342234488
2,1, 1, 1, 0, 8,15.00,30.00,Tuesday
7,-10.3
8,57.69019600974546
9,1.0
10,22.819555959623899
11,1.0
12,22.819555959623899
13,57.69019600974546
14,0.12191014877080488
15,-9.765245281126289
16,-0.4557186124694681
17,-10.689553937526739
18,0.46090887264553379
2,1, 1, 1, 0, 8,30.00,45.00,Tuesday
7,-10.15
8,285.3800070249231
9,1.0
10,109.75755355442667
11,1.0
12,109.75755355442667
13,285.3800070249231
14,0.46245508260775966
15,-3.407325798608063
16,1.2984257622500764
17,-9.40369001519116
18,0.48964955237736759
2,1, 1, 1, 0, 8,45.00,60.00,Tuesday
7,-10.0
8,524.6055123031704
9,1.0
10,195.8764694434918
11,1.0
12,195.8764694434918
13,524.6055123031704
14,0.8841563811188045
15,3.08744820124199
16,2.9298090939774967
17,-8.122039746808014
18,0.5771748267685102
2,1, 1, 1, 0, 9, 0.00,15.00,Tuesday
7,-9.725
8,768.4491717444191
9,1.0
10,278.97248314719988
11,1.0
12,278.97248314719988
13,768.4491717444191
14,1.2052180001257409
15,8.26670362586039
16,4.422606240651646
17,-7.007371921963113
18,0.7158456258380477
2,1, 1, 1, 0, 9,15.00,30.00,Tuesday
7,-9.45
8,1030.6249243631592
9,1.0
10,364.91995730569456
11,1.0
12,364.91995730569456
13,1030.6249243631592
14,1.5740123168852676
15,13.346965698061167
16,5.9134207449628779
17,-5.909710885002482
18,0.8925777173696335
2,1, 1, 1, 0, 9,30.00,45.00,Tuesday
7,-9.175
8,1210.4804273274606
9,1.0
10,420.35879993239237
11,1.0
12,420.35879993239237
13,1210.4804273274606
14,1.8133747208957372
15,16.106272436133904
16,6.917082187064807
17,-5.244643272000985
18,1.0883914000024287
2,1, 1, 1, 0, 9,45.00,60.00,Tuesday
7,-8.9
8,1398.6777532574607
9,1.0
10,478.00138373643099
11,1.0
12,478.00138373643099
13,1398.6777532574607
14,2.097914746726532
15,19.101822701644808
16,7.917422104495188
17,-4.549439185497135
18,1.2969789679641866
2,1, 1, 1, 0,10, 0.00,15.00,Tuesday
7,-8.350000000000002
8,1592.0755180216234
9,1.0
10,536.9185644770597
11,1.0
12,536.9185644770597
13,1592.0755180216234
14,2.321573809618884
15,20.22222659611433
16,8.951492198468998
17,-3.7392619538797478
18,1.5207240670813267
2,1, 1, 1, 0,10,15.00,30.00,Tuesday
7,-7.800000000000001
8,1792.701648704855
9,1.0
10,598.0969199229219
11,1.0
12,598.0969199229219
13,1792.701648704855
14,2.56925908762154
15,21.477468814082724
16,10.012276566779406
17,-2.9523248742796115
18,1.7564473188114883
2,1, 1, 1, 0,10,30.00,45.00,Tuesday
7,-7.25
8,1928.119448426844
9,1.0
10,637.6133352894237
11,1.0
12,637.6133352894237
13,1928.119448426844
14,2.749614728038792
15,21.53912666680856
16,10.762432818107357
17,-2.411386523623605
18,1.9906090294091739
2,1, 1, 1, 0,10,45.00,60.00,Tuesday
7,-6.7
8,2061.422449283195
9,1.0
10,676.6412284283772
11,1.0
12,676.6412284283772
13,2061.422449283195
14,2.9444589572685975
15,21.700871511032923
16,11.481364850085356
17,-1.8482160345247963
18,2.2154845680798864
2,1, 1, 1, 0,11, 0.00,15.00,Tuesday
7,-6.275
8,2192.1032501103888
9,1.0
10,715.0112779846514
11,1.0
12,715.0112779846514
13,2192.1032501103888
14,3.215927091235057
15,23.798137645257996
16,12.202609634104647
17,-1.116538153629449
18,2.434531940867219
2,1, 1, 1, 0,11,15.00,30.00,Tuesday
7,-5.85
8,2319.457313777197
9,1.0
10,752.5077794605232
11,1.0
12,752.5077794605232
13,2319.457313777197
14,3.472181105800069
15,25.732747875318656
16,12.910926833920258
17,-0.39713957012901349
18,2.652478697053472
2,1, 1, 1, 0,11,30.00,45.00,Tuesday
7,-5.425
8,2285.6965649767259
9,1.0
10,742.5988714321785
11,1.0
12,742.5988714321785
13,2285.6965649767259
14,3.6095974054856816
15,25.584310569059669
16,12.96739048668212
17,-0.09799718249087164
18,2.855142459636085
2,1, 1, 1, 0,11,45.00,60.00,Tuesday
7,-5.0
8,2235.2264038775226
9,1.0
10,727.8169025450712
11,1.0
12,727.8169025450712
13,2235.2264038775226
14,3.743155799716745
15,25.354584724940659
16,12.928133515117282
17,0.16883004073474695
18,3.032956752885313
2,1, 1, 1, 0,12, 0.00,15.00,Tuesday
7,-4.575
8,2148.0872974320998
9,1.0
10,700.3759009170325
11,1.0
12,700.3759009170325
13,2148.0872974320998
14,3.8296924005149908
15,24.611534517765198
16,12.707285894134941
17,0.3730793232681435
18,3.1816983397285676
2,1, 1, 1, 0,12,15.00,30.00,Tuesday
7,-4.15
8,2080.433669087304
9,1.0
10,681.6705029034473
11,1.0
12,681.6705029034473
13,2080.433669087304
14,3.9348828979479104
15,24.280668276322534
16,12.590556594080568
17,0.6533079170156384
18,3.308060869823938
2,1, 1, 1, 0,12,30.00,45.00,Tuesday
7,-3.7249999999999998
8,1821.205491197466
9,1.0
10,602.01865277251
11,1.0
12,602.01865277251
13,1821.205491197466
14,3.840956900307108
15,21.252028727907068
16,11.625905104519802
17,0.4363005233446984
18,3.3964834329703077
2,1, 1, 1, 0,12,45.00,60.00,Tuesday
7,-3.3
8,1484.3573874927543
9,1.0
10,493.55004396206007
11,1.0
12,493.55004396206007
13,1484.3573874927543
14,3.656893058807365
15,17.072945998097713
16,10.160200417150577
17,-0.06467153966445949
18,3.4307030946218997
2,1, 1, 1, 0,13, 0.00,15.00,Tuesday
7,-3.0249999999999996
8,1217.3467534298216
9,1.0
10,412.335026418112
11,1.0
12,412.335026418112
13,1217.3467534298216
14,3.5353150766758447
15,14.227685429111727
16,9.01209399598207
17,-0.3960801013231503
18,3.4169873425618344
2,1, 1, 1, 0,13,15.00,30.00,Tuesday
7,-2.75
8,884.698883173216
9,1.0
10,305.94037763660148
11,1.0
12,305.94037763660148
13,884.698883173216
14,3.2922254113036439
15,10.05283469478463
16,7.44708783814076
17,-0.9678714953600434
18,3.3591934208568885
2,1, 1, 1, 0,13,30.00,45.00,Tuesday
7,-2.475
8,804.3446509208166
9,1.0
10,281.0763483922329
11,1.0
12,281.0763483922329
13,804.3446509208166
14,3.267937830674085
15,9.541711506176057
16,7.052997317430709
17,-0.8431240661807919
18,3.2923425592659725
2,1, 1, 1, 0,13,45.00,60.00,Tuesday
7,-2.2
8,725.6418045118138
9,1.0
10,256.7721209415886
11,1.0
12,256.7721209415886
13,725.6418045118138
14,3.2334126779661847
15,8.933255481477103
16,6.706668201987554
17,-0.6962840909383772
18,3.2385766940323656
2,1, 1, 1, 0,14, 0.00,15.00,Tuesday
7,-1.9250000000000003
8,590.7556685446293
9,1.0
10,210.73276284570657
11,1.0
12,210.73276284570657
13,590.7556685446293
14,3.1291126675826335
15,7.38054137752806
16,5.998499754524744
17,-0.79562324887047
18,3.1925250259880517
2,1, 1, 1, 0,14,15.00,30.00,Tuesday
7,-1.6500000000000002
8,521.0384688260733
9,1.0
10,189.38488290342594
11,1.0
12,189.38488290342594
13,521.0384688260733
14,3.1125778498396379
15,6.97978413681271
16,5.662614083314338
17,-0.6838751597827013
18,3.153571520448923
2,1, 1, 1, 0,14,30.00,45.00,Tuesday
7,-1.375
8,498.15229057485149
9,1.0
10,179.3940297802914
11,1.0
12,179.3940297802914
13,498.15229057485149
14,3.1126696671712206
15,7.0987893252930649
16,5.525405043053183
17,-0.46166073873064308
18,3.1234297258915535
2,1, 1, 1, 0,14,45.00,60.00,Tuesday
7,-1.1
8,474.5397565900047
9,1.0
10,169.43349014176136
11,1.0
12,169.43349014176136
13,474.5397565900047
14,3.1132455407925936
15,7.196080267820755
16,5.387557961717448
17,-0.240010675982262
18,3.101066293290661
2,1, 1, 1, 0,15, 0.00,15.00,Tuesday
7,-1.1
8,498.70949945430098
9,1.0
10,178.15692317953907
11,1.0
12,178.15692317953907
13,498.70949945430098
14,3.161205754775906
15,8.012160457230934
16,5.529991454700394
17,-0.12014834961604493
18,3.0884746168770684
2,1, 1, 1, 0,15,15.00,30.00,Tuesday
7,-1.1
8,468.37919296528846
9,1.0
10,166.40516310952945
11,1.0
12,166.40516310952945
13,468.37919296528846
14,3.127764530304594
15,7.646703067263329
16,5.343987704666006
17,-0.20940910606384478
18,3.0792067330714607
2,1, 1, 1, 0,15,30.00,45.00,Tuesday
7,-1.1
8,393.0687015115151
9,1.0
10,140.8967369711617
11,1.0
12,140.8967369711617
13,393.0687015115151
14,3.0424271725142355
15,6.4381557830232769
16,4.906827786560882
17,-0.48445478364681096
18,3.06151991154573
2,1, 1, 1, 0,15,45.00,60.00,Tuesday
7,-1.1
8,321.7616953401986
9,1.0
10,116.57355796743004
11,1.0
12,116.57355796743004
13,321.7616953401986
14,2.948879903258999
15,5.225840960493296
16,4.466447955996728
17,-0.7645869947243682
18,3.029932273614498
2,1, 1, 1, 0,16, 0.00,15.00,Tuesday
7,-1.1
8,253.93333576075279
9,1.0
10,93.14939272689483
11,1.0
12,93.14939272689483
13,253.93333576075279
14,2.869450530192466
15,4.171297323383326
16,4.031844756018359
17,-0.9803400451866082
18,2.985154016984567
2,1, 1, 1, 0,16,15.00,30.00,Tuesday
7,-1.1
8,156.7583535986634
9,1.0
10,57.94047897402063
11,1.0
12,57.94047897402063
13,156.7583535986634
14,2.715976566842867
15,2.0406935216570276
16,3.3534689070609149
17,-1.3963089081715908
18,2.92386375820396
2,1, 1, 1, 0,16,30.00,45.00,Tuesday
7,-1.1
8,120.7720561106513
9,1.0
10,45.38251793443488
11,1.0
12,45.38251793443488
13,120.7720561106513
14,2.65796395540274
15,1.4225701147527404
16,3.0529091871281937
17,-1.5275932335753169
18,2.8545219584092136
2,1, 1, 1, 0,16,45.00,60.00,Tuesday
7,-1.1
8,83.83798514208277
9,1.0
10,32.02625108222755
11,1.0
12,32.02625108222755
13,83.83798514208277
14,2.56982834434819
15,0.5506575065922389
16,2.740450157058035
17,-1.689157557630665
18,2.7838728392239178
2,1, 1, 1, 0,17, 0.00,15.00,Tuesday
7,-1.1
8,45.806462499356218
9,1.0
10,17.762198626050539
11,1.0
12,17.762198626050539
13,45.806462499356218
14,2.454512405418592
15,-0.712562573187166
16,2.3943772177649409
17,-1.9883081174725704
18,2.7094619210121579
2,1, 1, 1, 0,17,15.00,30.00,Tuesday
7,-1.1
8,0.0
9,0.0
10,0.0
11,0.0
12,0.0
13,0.0
14,2.293018880877816
15,-2.5548437856511079
16,1.9861161115630353
17,-2.294656707675813
18,2.62035540638186
2,1, 1, 1, 0,17,30.00,45.00,Tuesday
7,-1.1
8,0.0
9,0.0
10,0.0
11,0.0
12,0.0
13,0.0
14,2.248876147252869
15,-2.6960426738084806
16,1.89264907554184
17,-2.3799452233094486
18,2.5292976221667957
2,1, 1, 1, 0,17,45.00,60.00,Tuesday
7,-1.1
8,0.0
9,0.0
10,0.0
11,0.0
12,0.0
13,0.0
14,2.190108661825843
15,-2.8965025645023556
16,1.8361196033639545
17,-2.4788836755000149
18,2.4508634394871526
2,1, 1, 1, 0,18, 0.00,15.00,Tuesday
7,-1.25
8,0.0
9,0.0
10,0.0
11,0.0
12,0.0
13,0.0
14,2.1422859691354318
15,-3.0431298536844344
16,1.7690646739392833
17,-2.6309761442688
18,2.3888314168196489
2,1, 1, 1, 0,18,15.00,30.00,Tuesday
7,-1.4
8,0.0
9,0.0
10,0.0
11,0.0
12,0.0
13,0.0
14,2.0993770835680518
15,-3.195444630264836
16,1.7191003266166263
17,-2.770262776465529
18,2.340035527049336
2,1, 1, 1, 0,18,30.00,45.00,Tuesday
7,-1.5499999999999999
8,0.0
9,0.0
10,0.0
11,0.0
12,0.0
13,0.0
14,2.061996354662456
15,-3.3471078328648375
16,1.669382478432226
17,-2.913998016991968
18,2.299827998764073
2,1, 1, 1, 0,18,45.00,60.00,Tuesday
7,-1.7
8,0.0
9,0.0
10,0.0
11,0.0
12,0.0
13,0.0
14,2.0262826166231657
15,-3.4990016622489938
16,1.6234300081010816
17,-3.0570655723998927
18,2.264535840318438
2,1, 1, 1, 0,19, 0.00,15.00,Tuesday
7,-1.825
8,0.0
9,0.0
10,0.0
11,0.0
12,0.0
13,0.0
14,2.018291204568395
15,-3.3369707849023224
16,1.5961997861423925
17,-3.0354822256318245
18,2.235612077326358
2,1, 1, 1, 0,19,15.00,30.00,Tuesday
7,-1.9500000000000002
8,0.0
9,0.0
10,0.0
11,0.0
12,0.0
13,0.0
14,2.0102137656822776
15,-3.258001504492963
16,1.5790898322437102
17,-3.043552898835742
18,2.214521762213823
2,1, 1, 1, 0,19,30.00,45.00,Tuesday
7,-2.075
8,0.0
9,0.0
10,0.0
11,0.0
12,0.0
13,0.0
14,1.997188611967232
15,-3.328428794381234
16,1.561619586281381
17,-3.1300179191703139
18,2.1995733588375105
2,1, 1, 1, 0,19,45.00,60.00,Tuesday
7,-2.2
8,0.0
9,0.0
10,0.0
11,0.0
12,0.0
13,0.0
14,1.9875558137582408
15,-3.2954642664038347
16,1.5467364861426632
17,-3.1533799837122844
18,2.187762801236095
2,1, 1, 1, 0,20, 0.00,15.00,Tuesday
7,-1.9250000000000003
8,0.0
9,0.0
10,0.0
11,0.0
12,0.0
13,0.0
14,1.9932404432988856
15,-2.9915665716751165
16,1.5738156353347677
17,-2.8832457529497335
18,2.1784114884272425
2,1, 1, 1, 0,20,15.00,30.00,Tuesday
7,-1.6500000000000002
8,0.0
9,0.0
10,0.0
11,0.0
12,0.0
13,0.0
14,1.9994315265130359
15,-2.6909451521564198
16,1.60134097263591
17,-2.6099718028914937
18,2.1715393923114849
2,1, 1, 1, 0,20,30.00,45.00,Tuesday
7,-1.375
8,0.0
9,0.0
10,0.0
11,0.0
12,0.0
13,0.0
14,2.006891234038694
15,-2.3917446295767537
16,1.6299983877664773
17,-2.336677682784682
18,2.1668713740571858
2,1, 1, 1, 0,20,45.00,60.00,Tuesday
7,-1.1
8,0.0
9,0.0
10,0.0
11,0.0
12,0.0
13,0.0
14,2.0158354864629328
15,-2.0939220759662486
16,1.6599587262911655
17,-2.0633521025688426
18,2.1639802229579039
2,1, 1, 1, 0,21, 0.00,15.00,Tuesday
7,-1.25
8,0.0
9,0.0
10,0.0
11,0.0
12,0.0
13,0.0
14,1.980818078526152
15,-2.3860293228779705
16,1.6294100308506359
17,-2.289848720272687
18,2.157325552631425
2,1, 1, 1, 0,21,15.00,30.00,Tuesday
7,-1.4
8,0.0
9,0.0
10,0.0
11,0.0
12,0.0
13,0.0
14,1.9445438073007396
15,-2.6083638628508245
16,1.5886864198059812
17,-2.4583200782331007
18,2.142168963622192
2,1, 1, 1, 0,21,30.00,45.00,Tuesday
7,-1.5499999999999999
8,0.0
9,0.0
10,0.0
11,0.0
12,0.0
13,0.0
14,1.8954166472112029
15,-2.966934737950857
16,1.532904552091054
17,-2.7119690405670555
18,2.1168078303474737
2,1, 1, 1, 0,21,45.00,60.00,Tuesday
7,-1.7
8,0.0
9,0.0
10,0.0
11,0.0
12,0.0
13,0.0
14,1.8410679301386149
15,-3.435097611205674
16,1.464723056960338
17,-2.996708417693924
18,2.0826564265792908
2,1, 1, 1, 0,22, 0.00,15.00,Tuesday
7,-1.5499999999999999
8,0.0
9,0.0
10,0.0
11,0.0
12,0.0
13,0.0
14,1.859662562156876
15,-2.9281900609163737
16,1.4672903512492895
17,-2.6864577095816459
18,2.05292279542471
2,1, 1, 1, 0,22,15.00,30.00,Tuesday
7,-1.4
8,0.0
9,0.0
10,0.0
11,0.0
12,0.0
13,0.0
14,1.870295282477346
15,-2.584814953507363
16,1.4940912317691755
17,-2.445220075290081
18,2.0355273923352126
2,1, 1, 1, 0,22,30.00,45.00,Tuesday
7,-1.25
8,0.0
9,0.0
10,0.0
11,0.0
12,0.0
13,0.0
14,1.8782751348727003
15,-2.358812348401972
16,1.5150270355087515
17,-2.2669881122123458
18,2.028985735195912
2,1, 1, 1, 0,22,45.00,60.00,Tuesday
7,-1.1
8,0.0
9,0.0
10,0.0
11,0.0
12,0.0
13,0.0
14,1.8899377476919226
15,-2.065658664592739
16,1.5438109322012679
17,-2.038680370429006
18,2.0285446954021175
2,1, 1, 1, 0,23, 0.00,15.00,Tuesday
7,-1.25
8,0.0
9,0.0
10,0.0
11,0.0
12,0.0
13,0.0
14,1.8560959748235
15,-2.3693475864780728
16,1.5054723582562702
17,-2.3520453255422355
18,2.0250844797569518
2,1, 1, 1, 0,23,15.00,30.00,Tuesday
7,-1.4
8,0.0
9,0.0
10,0.0
11,0.0
12,0.0
13,0.0
14,1.8227453691578098
15,-2.6738875557203247
16,1.4486159605597778
17,-2.6670964699372918
18,2.0131279446519976
2,1, 1, 1, 0,23,30.00,45.00,Tuesday
7,-1.5499999999999999
8,0.0
9,0.0
10,0.0
11,0.0
12,0.0
13,0.0
14,1.7862591436256513
15,-2.9789375356938949
16,1.3902480452090913
17,-2.9819482751320836
18,1.992682303191627
2,1, 1, 1, 0,23,45.00,60.00,Tuesday
7,-1.7
8,0.0
9,0.0
10,0.0
11,0.0
12,0.0
13,0.0
14,1.7453376938643009
15,-3.2843491193398277
16,1.3287018591129254
17,-3.2968375914804257
18,1.9658387538701017
2,1, 1, 1, 0,24, 0.00,15.00,Tuesday
7,-1.7
8,0.0
9,0.0
10,0.0
11,0.0
12,0.0
13,0.0
14,1.7230141135879285
15,-3.3379468467079227
16,1.2950718785889422
17,-3.3542760501925388
18,1.9374331465566833
2,1, 1, 1, 0,24,15.00,30.00,Tuesday
7,-1.7
8,0.0
9,0.0
10,0.0
11,0.0
12,0.0
13,0.0
14,1.6975607424631292
15,-3.3924054349570977
16,1.2673101430796692
17,-3.4149924362845924
18,1.9104896308184197
2,1, 1, 1, 0,24,30.00,45.00,Tuesday
7,-1.7
8,0.0
9,0.0
10,0.0
11,0.0
12,0.0
13,0.0
14,1.672656640971991
15,-3.4467287848176779
16,1.2387054440887937
17,-3.4759557502183044
18,1.8854179227403643
2,1, 1, 1, 0,24,45.00,60.00,Tuesday
7,-1.7
8,0.0
9,0.0
10,0.0
11,0.0
12,0.0
13,0.0
14,1.6482697152271886
15,-3.501051592647409
16,1.2106433337340832
17,-3.536816909506342
18,1.86158255335816
End of Data
 Number of Records Written=        1152
