Program Version,EnergyPlus, Version 9.5.0-de239b2e5f, YMD=2023.02.16 18:16
1,5,Environment Title[],Latitude[deg],Longitude[deg],Time Zone[],Elevation[m]
2,8,Day of Simulation[],Month[],Day of Month[],DST Indicator[1=yes 0=no],Hour[],StartMinute[],EndMinute[],DayType
3,5,Cumulative Day of Simulation[],Month[],Day of Month[],DST Indicator[1=yes 0=no],DayType  ! When Daily Report Variables Requested
4,2,Cumulative Days of Simulation[],Month[]  ! When Monthly Report Variables Requested
5,1,Cumulative Days of Simulation[] ! When Run Period Report Variables Requested
6,1,Calendar Year of Simulation[] ! When Annual Report Variables Requested
7,1,Environment,Site Outdoor Air Drybulb Temperature [C] !TimeStep
8,1,ZONE ONE,Zone Windows Total Transmitted Solar Radiation Rate [W] !TimeStep
9,1,ZN001:WALL001,Surface Outside Face Sunlit Fraction [] !TimeStep
10,1,ZN001:WALL001,Surface Outside Face Incident Solar Radiation Rate per Area [W/m2] !TimeStep
11,1,ZN001:WALL001:WIN001,Surface Outside Face Sunlit Fraction [] !TimeStep
12,1,ZN001:WALL001:WIN001,Surface Outside Face Incident Solar Radiation Rate per Area [W/m2] !TimeStep
13,1,ZN001:WALL001:WIN001,Surface Window Transmitted Solar Radiation Rate [W] !TimeStep
14,1,ZN001:WALL001,Surface Inside Face Temperature [C] !TimeStep
15,1,ZN001:WALL001,Surface Outside Face Temperature [C] !TimeStep
16,1,ZN001:WALL001:WIN001,Surface Inside Face Temperature [C] !TimeStep
17,1,ZN001:WALL001:WIN001,Surface Outside Face Temperature [C] !TimeStep
18,1,ZONE ONE,Zone Mean Air Temperature [C] !TimeStep
End of Data Dictionary
1,RUN PERIOD 1,  41.98, -87.92,  -6.00, 201.00
2,1, 1, 1, 0, 1, 0.00,15.00,Tuesday
7,-4.324999999999999
8,0.0
9,0.0
10,0.0
11,0.0
12,0.0
13,0.0
14,2.4888718417438344
15,-5.958582991412525
16,1.8366740596383693
17,-5.745269130271026
18,2.8736485005656728
2,1, 1, 1, 0, 1,15.00,30.00,Tuesday
7,-6.949999999999999
8,0.0
9,0.0
10,0.0
11,0.0
12,0.0
13,0.0
14,2.319781611246094
15,-8.426390507149087
16,1.4860436051436637
17,-8.035094338483532
18,2.797262854394137
2,1, 1, 1, 0, 1,30.00,45.00,Tuesday
7,-9.575
8,0.0
9,0.0
10,0.0
11,0.0
12,0.0
13,0.0
14,2.1336276779509388
15,-10.902261046229328
16,1.1343209716462753
17,-10.341990405089519
18,2.691938127549509
2,1, 1, 1, 0, 1,45.00,60.00,Tuesday
7,-12.2
8,0.0
9,0.0
10,0.0
11,0.0
12,0.0
13,0.0
14,1.9336208857137248
15,-13.384687635027998
16,0.7670920333833351
17,-12.64859476153174
18,2.56563728733343
2,1, 1, 1, 0, 2, 0.00,15.00,Tuesday
7,-12.075
8,0.0
9,0.0
10,0.0
11,0.0
12,0.0
13,0.0
14,1.8843230834073484
15,-13.185987014970584
16,0.6724608922959305
17,-12.506918935042564
18,2.450092625148977
2,1, 1, 1, 0, 2,15.00,30.00,Tuesday
7,-11.95
8,0.0
9,0.0
10,0.0
11,0.0
12,0.0
13,0.0
14,1.8200840670373968
15,-13.008586629604562
16,0.6290810121239474
17,-12.324257303656282
18,2.361604414160331
2,1, 1, 1, 0, 2,30.00,45.00,Tuesday
7,-11.825
8,0.0
9,0.0
10,0.0
11,0.0
12,0.0
13,0.0
14,1.7706598954655557
15,-12.830078056137998
16,0.5902405352004507
17,-12.150615895497822
18,2.296880975139469
2,1, 1, 1, 0, 2,45.00,60.00,Tuesday
7,-11.7
8,0.0
9,0.0
10,0.0
11,0.0
12,0.0
13,0.0
14,1.7312924700545145
15,-12.651631661785224
16,0.5633092510892084
17,-11.976020571612935
18,2.246886972746845
2,1, 1, 1, 0, 3, 0.00,15.00,Tuesday
7,-11.549999999999999
8,0.0
9,0.0
10,0.0
11,0.0
12,0.0
13,0.0
14,1.6929744350616516
15,-12.52678213339023
16,0.5406150609035194
17,-11.84858577903259
18,2.203586966996172
2,1, 1, 1, 0, 3,15.00,30.00,Tuesday
7,-11.399999999999999
8,0.0
9,0.0
10,0.0
11,0.0
12,0.0
13,0.0
14,1.6578170591022963
15,-12.40334803800158
16,0.5183264509573178
17,-11.714939054868694
18,2.1627043359460265
2,1, 1, 1, 0, 3,30.00,45.00,Tuesday
7,-11.25
8,0.0
9,0.0
10,0.0
11,0.0
12,0.0
13,0.0
14,1.6235303464934575
15,-12.281500048606994
16,0.49780482274672979
17,-11.581345071088095
18,2.122836367817553
2,1, 1, 1, 0, 3,45.00,60.00,Tuesday
7,-11.1
8,0.0
9,0.0
10,0.0
11,0.0
12,0.0
13,0.0
14,1.5896776308759176
15,-12.161301112801118
16,0.4778869737359628
17,-11.448403596016988
18,2.083716936500468
2,1, 1, 1, 0, 4, 0.00,15.00,Tuesday
7,-11.1
8,0.0
9,0.0
10,0.0
11,0.0
12,0.0
13,0.0
14,1.5525965626564443
15,-12.130939365873815
16,0.44208146126663908
17,-11.438226849171997
18,2.0449343719960577
2,1, 1, 1, 0, 4,15.00,30.00,Tuesday
7,-11.1
8,0.0
9,0.0
10,0.0
11,0.0
12,0.0
13,0.0
14,1.515923321993525
15,-12.101742970229447
16,0.40595348804060907
17,-11.437129935261112
18,2.0062930075893274
2,1, 1, 1, 0, 4,30.00,45.00,Tuesday
7,-11.1
8,0.0
9,0.0
10,0.0
11,0.0
12,0.0
13,0.0
14,1.4793165088277674
15,-12.074167529045445
16,0.3719730652627504
17,-11.433946238516512
18,1.9677144291257094
2,1, 1, 1, 0, 4,45.00,60.00,Tuesday
7,-11.1
8,0.0
9,0.0
10,0.0
11,0.0
12,0.0
13,0.0
14,1.4427421666113494
15,-12.048083736872187
16,0.33784430838221626
17,-11.43053631145051
18,1.9292011357058068
2,1, 1, 1, 0, 5, 0.00,15.00,Tuesday
7,-10.975
8,0.0
9,0.0
10,0.0
11,0.0
12,0.0
13,0.0
14,1.4125627440519009
15,-11.925811327999707
16,0.3190471293880819
17,-11.322507914864673
18,1.891572236497229
2,1, 1, 1, 0, 5,15.00,30.00,Tuesday
7,-10.85
8,0.0
9,0.0
10,0.0
11,0.0
12,0.0
13,0.0
14,1.3804743978432877
15,-11.803670891415063
16,0.29985931283931679
17,-11.210829425504813
18,1.8550649535603537
2,1, 1, 1, 0, 5,30.00,45.00,Tuesday
7,-10.725
8,0.0
9,0.0
10,0.0
11,0.0
12,0.0
13,0.0
14,1.3512507525599616
15,-11.681442804853737
16,0.28043572652700279
17,-11.098920687610417
18,1.8196689211724003
2,1, 1, 1, 0, 5,45.00,60.00,Tuesday
7,-10.6
8,0.0
9,0.0
10,0.0
11,0.0
12,0.0
13,0.0
14,1.3215977521266689
15,-11.559300945084145
16,0.2624071287159495
17,-10.986858633662508
18,1.7851491589952676
2,1, 1, 1, 0, 6, 0.00,15.00,Tuesday
7,-10.6
8,0.0
9,0.0
10,0.0
11,0.0
12,0.0
13,0.0
14,1.283965337388842
15,-11.560047619760676
16,0.22832992326260638
17,-10.985148471662058
18,1.7500676215693685
2,1, 1, 1, 0, 6,15.00,30.00,Tuesday
7,-10.6
8,0.0
9,0.0
10,0.0
11,0.0
12,0.0
13,0.0
14,1.2479367184107877
15,-11.560685238865905
16,0.19402336305222435
17,-10.986959499298223
18,1.7137474027536093
2,1, 1, 1, 0, 6,30.00,45.00,Tuesday
7,-10.6
8,0.0
9,0.0
10,0.0
11,0.0
12,0.0
13,0.0
14,1.2112910642423203
15,-11.561402374151396
16,0.16020188969923766
17,-10.989622689420913
18,1.676433385753409
2,1, 1, 1, 0, 6,45.00,60.00,Tuesday
7,-10.6
8,0.0
9,0.0
10,0.0
11,0.0
12,0.0
13,0.0
14,1.1743276596616275
15,-11.56211479044092
16,0.1259409899692514
17,-10.992600261677012
18,1.6385824827981373
2,1, 1, 1, 0, 7, 0.00,15.00,Tuesday
7,-10.6
8,0.0
9,0.0
10,0.0
11,0.0
12,0.0
13,0.0
14,1.1395686620150909
15,-11.537091645820464
16,0.09286151341041205
17,-10.989887300049077
18,1.6009304552564155
2,1, 1, 1, 0, 7,15.00,30.00,Tuesday
7,-10.6
8,0.0
9,0.0
10,0.0
11,0.0
12,0.0
13,0.0
14,1.1046543221365038
15,-11.51336268520245
16,0.06064195621684121
17,-10.985806395098905
18,1.5638424496856043
2,1, 1, 1, 0, 7,30.00,45.00,Tuesday
7,-10.6
8,0.0
9,0.0
10,0.0
11,0.0
12,0.0
13,0.0
14,1.0700247740146998
15,-11.490836470747823
16,0.02839813588252582
17,-10.98154948916914
18,1.5272759350406149
2,1, 1, 1, 0, 7,45.00,60.00,Tuesday
7,-10.6
8,0.0
9,0.0
10,0.0
11,0.0
12,0.0
13,0.0
14,1.0356836470548732
15,-11.469442360464509
16,-0.0035834679760000656
17,-10.977335808467558
18,1.491083713974283
2,1, 1, 1, 0, 8, 0.00,15.00,Tuesday
7,-10.45
8,0.0
9,0.0
10,0.0
11,0.0
12,0.0
13,0.0
14,1.000294336224883
15,-11.421294985060328
16,-0.02942639285407722
17,-10.936822853038507
18,1.454595430409239
2,1, 1, 1, 0, 8,15.00,30.00,Tuesday
7,-10.3
8,71.56792871975249
9,1.0
10,22.819555959623899
11,1.0
12,22.819555959623899
13,71.56792871975249
14,1.0681717288553574
15,-9.748502899749994
16,0.38523424203384595
17,-10.56936027690972
18,1.4323688298401914
2,1, 1, 1, 0, 8,30.00,45.00,Tuesday
7,-10.15
8,354.0299290602728
9,1.0
10,109.75755355442667
11,1.0
12,109.75755355442667
13,354.0299290602728
14,1.4167751873212329
15,-3.3878475086508437
16,2.1828038038590309
17,-9.23500400618002
18,1.4629416532254434
2,1, 1, 1, 0, 8,45.00,60.00,Tuesday
7,-10.0
8,650.8026061160458
9,1.0
10,195.8764694434918
11,1.0
12,195.8764694434918
13,650.8026061160458
14,1.8437718040137219
15,3.09943461139005
16,3.856292231681323
17,-7.925422808267285
18,1.5560679596734473
2,1, 1, 1, 0, 9, 0.00,15.00,Tuesday
7,-9.725
8,953.3043628211269
9,1.0
10,278.97248314719988
11,1.0
12,278.97248314719988
13,953.3043628211269
14,2.1919417606123456
15,8.284126060819624
16,5.376684843287023
17,-6.794820147432745
18,1.7024129251245078
2,1, 1, 1, 0, 9,15.00,30.00,Tuesday
7,-9.45
8,1278.5481108613147
9,1.0
10,364.91995730569456
11,1.0
12,364.91995730569456
13,1278.5481108613147
14,2.5745931801733228
15,13.362155282330314
16,6.889886340168118
17,-5.686321272040573
18,1.8881434579500625
2,1, 1, 1, 0, 9,30.00,45.00,Tuesday
7,-9.175
8,1501.6689651177185
9,1.0
10,420.35879993239237
11,1.0
12,420.35879993239237
13,1501.6689651177185
14,2.826528383043616
15,16.12122185835887
16,7.9032389993656129
17,-5.021235196922589
18,2.093647165832963
2,1, 1, 1, 0, 9,45.00,60.00,Tuesday
7,-8.9
8,1735.1383193393602
9,1.0
10,478.00138373643099
11,1.0
12,478.00138373643099
13,1735.1383193393602
14,3.126744023004106
15,19.116488723406396
16,8.911714051147442
17,-4.325452281839716
18,2.3114915620141427
2,1, 1, 1, 0,10, 0.00,15.00,Tuesday
7,-8.350000000000002
8,1975.0591100537159
9,1.0
10,536.9185644770597
11,1.0
12,536.9185644770597
13,1975.0591100537159
14,3.366898039994726
15,20.23583278139157
16,9.9546214054227
17,-3.5272609803836305
18,2.5461264802304597
2,1, 1, 1, 0,10,15.00,30.00,Tuesday
7,-7.800000000000001
8,2223.9470947223846
9,1.0
10,598.0969199229219
11,1.0
12,598.0969199229219
13,2223.9470947223846
14,3.632848194674323
15,21.490335062858134
16,11.025881720011853
17,-2.7497108055675314
18,2.79506185613765
2,1, 1, 1, 0,10,30.00,45.00,Tuesday
7,-7.25
8,2391.940481956653
9,1.0
10,637.6133352894237
11,1.0
12,637.6133352894237
13,2391.940481956653
14,3.830345921933933
15,21.5512971870104
16,11.78491402507592
17,-2.2197795238009805
18,3.0440011072522394
2,1, 1, 1, 0,10,45.00,60.00,Tuesday
7,-6.7
8,2557.310342406259
9,1.0
10,676.6412284283772
11,1.0
12,676.6412284283772
13,2557.310342406259
14,4.043768524353436
15,21.712487480086684
16,12.513105333429849
17,-1.6669386002969873
18,3.28440387701886
2,1, 1, 1, 0,11, 0.00,15.00,Tuesday
7,-6.275
8,2719.427216426026
9,1.0
10,715.0112779846514
11,1.0
12,715.0112779846514
13,2719.427216426026
14,4.333444740897917
15,23.809917981504119
16,13.2459289565993
17,-0.934952636812227
18,3.5196123854965148
2,1, 1, 1, 0,11,15.00,30.00,Tuesday
7,-5.85
8,2877.417086129279
9,1.0
10,752.5077794605232
11,1.0
12,752.5077794605232
13,2877.417086129279
14,4.608655351334975
15,25.744633589440264
16,13.965933577988836
17,-0.21553042185536243
18,3.7544649901650226
2,1, 1, 1, 0,11,30.00,45.00,Tuesday
7,-5.425
8,2835.5349808371727
9,1.0
10,742.5988714321785
11,1.0
12,742.5988714321785
13,2835.5349808371727
14,4.760221060493252
15,25.596235862398005
16,14.0370869128202
17,0.08245356319400799
18,3.9739089000960794
2,1, 1, 1, 0,11,45.00,60.00,Tuesday
7,-5.0
8,2772.923910988253
9,1.0
10,727.8169025450712
11,1.0
12,727.8169025450712
13,2772.923910988253
14,4.907409701833903
15,25.36668344840898
16,14.0113692399201
17,0.3479727556390344
18,4.167541368653116
2,1, 1, 1, 0,12, 0.00,15.00,Tuesday
7,-4.575
8,2664.822954671648
9,1.0
10,700.3759009170325
11,1.0
12,700.3759009170325
13,2664.822954671648
14,5.004824323106836
15,24.623761840515877
16,13.801189774231887
17,0.5485601065446417
18,4.330466091216611
2,1, 1, 1, 0,12,15.00,30.00,Tuesday
7,-4.15
8,2580.894828475442
9,1.0
10,681.6705029034473
11,1.0
12,681.6705029034473
13,2580.894828475442
14,5.121019475674189
15,24.293034016571796
16,13.698737900407196
17,0.8288124760814526
18,4.469783387844955
2,1, 1, 1, 0,12,30.00,45.00,Tuesday
7,-3.7249999999999998
8,2259.3077124563117
9,1.0
10,602.01865277251
11,1.0
12,602.01865277251
13,2259.3077124563117
14,5.029953538173172
15,21.26441412982368
16,12.744907214503428
17,0.6064935916182321
18,4.568438877152256
2,1, 1, 1, 0,12,45.00,60.00,Tuesday
7,-3.3
8,1841.4287184027517
9,1.0
10,493.55004396206007
11,1.0
12,493.55004396206007
13,1841.4287184027517
14,4.839641820030474
15,17.085458382421728
16,11.277639757939028
17,0.09245014257658113
18,4.610236120067567
2,1, 1, 1, 0,13, 0.00,15.00,Tuesday
7,-3.0249999999999996
8,1510.1870283450449
9,1.0
10,412.335026418112
11,1.0
12,412.335026418112
13,1510.1870283450449
14,4.71056172346055
15,14.240378119543756
16,10.13257990661134
17,-0.24230257676276779
18,4.602325685235405
2,1, 1, 1, 0,13,15.00,30.00,Tuesday
7,-2.75
8,1097.5186598189753
9,1.0
10,305.94037763660148
11,1.0
12,305.94037763660148
13,1097.5186598189753
14,4.455367892665595
15,10.065234724031829
16,8.559999934571068
17,-0.8247654958536259
18,4.547090635877333
2,1, 1, 1, 0,13,30.00,45.00,Tuesday
7,-2.475
8,997.8347210574955
9,1.0
10,281.0763483922329
11,1.0
12,281.0763483922329
13,997.8347210574955
14,4.43253259933099
15,9.555278931200969
16,8.163687943445325
17,-0.7011812478237971
18,4.480378703736353
2,1, 1, 1, 0,13,45.00,60.00,Tuesday
7,-2.2
8,900.1994191962868
9,1.0
10,256.7721209415886
11,1.0
12,256.7721209415886
13,900.1994191962868
14,4.3959696889396329
15,8.947171907893086
16,7.819917288689339
17,-0.555176396953641
18,4.426026946132784
2,1, 1, 1, 0,14, 0.00,15.00,Tuesday
7,-1.9250000000000003
8,732.8655907144981
9,1.0
10,210.73276284570657
11,1.0
12,210.73276284570657
13,732.8655907144981
14,4.287157145452231
15,7.397614989377142
16,7.103408840133284
17,-0.66021463324455
18,4.3784931723747049
2,1, 1, 1, 0,14,15.00,30.00,Tuesday
7,-1.6500000000000002
8,646.3774883140063
9,1.0
10,189.38488290342594
11,1.0
12,189.38488290342594
13,646.3774883140063
14,4.265948262205576
15,6.994158264123088
16,6.765258812921616
17,-0.5473441098282024
18,4.337582868833621
2,1, 1, 1, 0,14,30.00,45.00,Tuesday
7,-1.375
8,617.9858986324632
9,1.0
10,179.3940297802914
11,1.0
12,179.3940297802914
13,617.9858986324632
14,4.263529361821778
15,7.113810217362988
16,6.622499637545843
17,-0.32642663460478618
18,4.305416773295372
2,1, 1, 1, 0,14,45.00,60.00,Tuesday
7,-1.1
8,588.6932238625436
9,1.0
10,169.43349014176136
11,1.0
12,169.43349014176136
13,588.6932238625436
14,4.260503297230145
15,7.211526087191814
16,6.478713918065978
17,-0.10599163134332912
18,4.28108096429044
2,1, 1, 1, 0,15, 0.00,15.00,Tuesday
7,-1.1
8,618.6771475466255
9,1.0
10,178.15692317953907
11,1.0
12,178.15692317953907
13,618.6771475466255
14,4.307160152229679
15,8.02761179690833
16,6.6229380766421859
17,0.01957578137512428
18,4.267308031536662
2,1, 1, 1, 0,15,15.00,30.00,Tuesday
7,-1.1
8,581.0506986351386
9,1.0
10,166.40516310952945
11,1.0
12,166.40516310952945
13,581.0506986351386
14,4.273783062211142
15,7.663261192476864
16,6.432335647501247
17,-0.06955797902571703
18,4.256596751508764
2,1, 1, 1, 0,15,30.00,45.00,Tuesday
7,-1.1
8,487.62380365139259
9,1.0
10,140.8967369711617
11,1.0
12,140.8967369711617
13,487.62380365139259
14,4.181108919092455
15,6.453464711573731
16,5.98800185056291
17,-0.345771028841682
18,4.236767469858199
2,1, 1, 1, 0,15,45.00,60.00,Tuesday
7,-1.1
8,399.16345704405486
9,1.0
10,116.57355796743004
11,1.0
12,116.57355796743004
13,399.16345704405486
14,4.089279918010555
15,5.245869075893392
16,5.538662673502586
17,-0.6269162827864534
18,4.201859009920298
2,1, 1, 1, 0,16, 0.00,15.00,Tuesday
7,-1.1
8,315.01856693619978
9,1.0
10,93.14939272689483
11,1.0
12,93.14939272689483
13,315.01856693619978
14,4.004425087416191
15,4.190733823317389
16,5.094848595903272
17,-0.8410629693411806
18,4.152778305907725
2,1, 1, 1, 0,16,15.00,30.00,Tuesday
7,-1.1
8,194.46754305814083
9,1.0
10,57.94047897402063
11,1.0
12,57.94047897402063
13,194.46754305814083
14,3.844559436494439
15,2.062084403834199
16,4.394753453042995
17,-1.2603004905482749
18,4.085839403052889
2,1, 1, 1, 0,16,30.00,45.00,Tuesday
7,-1.1
8,149.82451960460407
9,1.0
10,45.38251793443488
11,1.0
12,45.38251793443488
13,149.82451960460407
14,3.782038460113616
15,1.4455155356453083
16,4.07505125327134
17,-1.3919619562959725
18,4.010167057881814
2,1, 1, 1, 0,16,45.00,60.00,Tuesday
7,-1.1
8,104.00572991011612
9,1.0
10,32.02625108222755
11,1.0
12,32.02625108222755
13,104.00572991011612
14,3.6889726298836549
15,0.575913123943022
16,3.7629947392202895
17,-1.5507406382017167
18,3.933098509534022
2,1, 1, 1, 0,17, 0.00,15.00,Tuesday
7,-1.1
8,56.8254897678188
9,1.0
10,17.762198626050539
11,1.0
12,17.762198626050539
13,56.8254897678188
14,3.5688689279187768
15,-0.6842139135877258
16,3.4144529636949985
17,-1.8504625473948409
18,3.851738813113577
2,1, 1, 1, 0,17,15.00,30.00,Tuesday
7,-1.1
8,0.0
9,0.0
10,0.0
11,0.0
12,0.0
13,0.0
14,3.4019882087960537
15,-2.5252583573983098
16,2.9951010752480444
17,-2.1708451728183038
18,3.7560636558591975
2,1, 1, 1, 0,17,30.00,45.00,Tuesday
7,-1.1
8,0.0
9,0.0
10,0.0
11,0.0
12,0.0
13,0.0
14,3.3537320968701
15,-2.665299385636459
16,2.8971883527590309
17,-2.249266114438967
18,3.6612612764373084
2,1, 1, 1, 0,17,45.00,60.00,Tuesday
7,-1.1
8,0.0
9,0.0
10,0.0
11,0.0
12,0.0
13,0.0
14,3.2917117894495457
15,-2.8632954467735747
16,2.837694568953225
17,-2.3419791553061488
18,3.5811489572464456
2,1, 1, 1, 0,18, 0.00,15.00,Tuesday
7,-1.25
8,0.0
9,0.0
10,0.0
11,0.0
12,0.0
13,0.0
14,3.2412995476891099
15,-3.0102057764383307
16,2.7676343816366399
17,-2.4943146247348979
18,3.518155770582451
2,1, 1, 1, 0,18,15.00,30.00,Tuesday
7,-1.4
8,0.0
9,0.0
10,0.0
11,0.0
12,0.0
13,0.0
14,3.196121187816408
15,-3.1625147710477177
16,2.7151976282628995
17,-2.632984952314928
18,3.4682558502781566
2,1, 1, 1, 0,18,30.00,45.00,Tuesday
7,-1.5499999999999999
8,0.0
9,0.0
10,0.0
11,0.0
12,0.0
13,0.0
14,3.156431097930696
15,-3.3142252183963665
16,2.65874854152446
17,-2.7804767639249805
18,3.4265107964928229
2,1, 1, 1, 0,18,45.00,60.00,Tuesday
7,-1.7
8,0.0
9,0.0
10,0.0
11,0.0
12,0.0
13,0.0
14,3.1183801263775976
15,-3.466173118018128
16,2.6145654583430089
17,-2.918785221058556
18,3.389260131464615
2,1, 1, 1, 0,19, 0.00,15.00,Tuesday
7,-1.825
8,0.0
9,0.0
10,0.0
11,0.0
12,0.0
13,0.0
14,3.107389328202055
15,-3.307883159217233
16,2.581518070479433
17,-2.912320421225047
18,3.358139140936708
2,1, 1, 1, 0,19,15.00,30.00,Tuesday
7,-1.9500000000000002
8,0.0
9,0.0
10,0.0
11,0.0
12,0.0
13,0.0
14,3.096044932209121
15,-3.2322199034882539
16,2.562853031246391
17,-2.92469283134767
18,3.334646068916219
2,1, 1, 1, 0,19,30.00,45.00,Tuesday
7,-2.075
8,0.0
9,0.0
10,0.0
11,0.0
12,0.0
13,0.0
14,3.079934695660581
15,-3.3035354502331129
16,2.542425450465032
17,-3.01384967514457
18,3.3170863093527487
2,1, 1, 1, 0,19,45.00,60.00,Tuesday
7,-2.2
8,0.0
9,0.0
10,0.0
11,0.0
12,0.0
13,0.0
14,3.0671829726158976
15,-3.2735117410441747
16,2.5268058923052196
17,-3.0497366152180804
18,3.302458737771119
2,1, 1, 1, 0,20, 0.00,15.00,Tuesday
7,-1.9250000000000003
8,0.0
9,0.0
10,0.0
11,0.0
12,0.0
13,0.0
14,3.0699800824737055
15,-2.9703563860874029
16,2.5483315541906679
17,-2.7798316023158806
18,3.290233386722835
2,1, 1, 1, 0,20,15.00,30.00,Tuesday
7,-1.6500000000000002
8,0.0
9,0.0
10,0.0
11,0.0
12,0.0
13,0.0
14,3.0728403797374614
15,-2.670416400758884
16,2.573442657893793
17,-2.509691987937913
18,3.280491190395241
2,1, 1, 1, 0,20,30.00,45.00,Tuesday
7,-1.375
8,0.0
9,0.0
10,0.0
11,0.0
12,0.0
13,0.0
14,3.0769834954508465
15,-2.3718428681865166
16,2.599580349874202
17,-2.239426343200762
18,3.2729435789537346
2,1, 1, 1, 0,20,45.00,60.00,Tuesday
7,-1.1
8,0.0
9,0.0
10,0.0
11,0.0
12,0.0
13,0.0
14,3.0823570528623378
15,-2.0746174877613545
16,2.627027313207236
17,-1.969013882125978
18,3.267134496669163
2,1, 1, 1, 0,21, 0.00,15.00,Tuesday
7,-1.25
8,0.0
9,0.0
10,0.0
11,0.0
12,0.0
13,0.0
14,3.044821257124678
15,-2.363612447231758
16,2.594476034002298
17,-2.1848221209877467
18,3.257300073902163
2,1, 1, 1, 0,21,15.00,30.00,Tuesday
7,-1.4
8,0.0
9,0.0
10,0.0
11,0.0
12,0.0
13,0.0
14,3.0064657194676016
15,-2.5843413444106839
16,2.5513136453861309
17,-2.348544467659849
18,3.2387432009491
2,1, 1, 1, 0,21,30.00,45.00,Tuesday
7,-1.5499999999999999
8,0.0
9,0.0
10,0.0
11,0.0
12,0.0
13,0.0
14,2.9553404063797945
15,-2.9389286286033626
16,2.4944743610847128
17,-2.5898065986676217
18,3.209979962107247
2,1, 1, 1, 0,21,45.00,60.00,Tuesday
7,-1.7
8,0.0
9,0.0
10,0.0
11,0.0
12,0.0
13,0.0
14,2.8988328830379705
15,-3.402599639546025
16,2.424949425151226
17,-2.8615855617246668
18,3.172608303117949
2,1, 1, 1, 0,22, 0.00,15.00,Tuesday
7,-1.5499999999999999
8,0.0
9,0.0
10,0.0
11,0.0
12,0.0
13,0.0
14,2.9141619417470228
15,-2.9010707758064457
16,2.4239737495238957
17,-2.5674780315242744
18,3.140066188985969
2,1, 1, 1, 0,22,15.00,30.00,Tuesday
7,-1.4
8,0.0
9,0.0
10,0.0
11,0.0
12,0.0
13,0.0
14,2.920876995553243
15,-2.5613579392562419
16,2.4470246042165515
17,-2.3375944353683737
18,3.1201764202636377
2,1, 1, 1, 0,22,30.00,45.00,Tuesday
7,-1.25
8,0.0
9,0.0
10,0.0
11,0.0
12,0.0
13,0.0
14,2.9252893778097106
15,-2.336985891428384
16,2.465243671383405
17,-2.171195608204698
18,3.111207517780629
2,1, 1, 1, 0,22,45.00,60.00,Tuesday
7,-1.1
8,0.0
9,0.0
10,0.0
11,0.0
12,0.0
13,0.0
14,2.933504117497579
15,-2.0467870298491595
16,2.489833830702878
17,-1.9465171563890067
18,3.108181118454282
2,1, 1, 1, 0,23, 0.00,15.00,Tuesday
7,-1.25
8,0.0
9,0.0
10,0.0
11,0.0
12,0.0
13,0.0
14,2.8968192190053374
15,-2.350338652093374
16,2.448111054144192
17,-2.2588387572830017
18,3.101667270440674
2,1, 1, 1, 0,23,15.00,30.00,Tuesday
7,-1.4
8,0.0
9,0.0
10,0.0
11,0.0
12,0.0
13,0.0
14,2.8613585719689036
15,-2.6548712524705286
16,2.388176623539323
17,-2.5734626695112867
18,3.0862917162410357
2,1, 1, 1, 0,23,30.00,45.00,Tuesday
7,-1.5499999999999999
8,0.0
9,0.0
10,0.0
11,0.0
12,0.0
13,0.0
14,2.8213491342780099
15,-2.9599609064544896
16,2.326798231352086
17,-2.8878681777164276
18,3.06224327638983
2,1, 1, 1, 0,23,45.00,60.00,Tuesday
7,-1.7
8,0.0
9,0.0
10,0.0
11,0.0
12,0.0
13,0.0
14,2.778823852195896
15,-3.2653649995633167
16,2.2616250082634794
17,-3.2023622235566338
18,3.031939769938243
2,1, 1, 1, 0,24, 0.00,15.00,Tuesday
7,-1.7
8,0.0
9,0.0
10,0.0
11,0.0
12,0.0
13,0.0
14,2.7534671949607469
15,-3.3191077908833814
16,2.2255281725448414
17,-3.2602608679452489
18,3.0003929211454078
2,1, 1, 1, 0,24,15.00,30.00,Tuesday
7,-1.7
8,0.0
9,0.0
10,0.0
11,0.0
12,0.0
13,0.0
14,2.7250834788663598
15,-3.373610849375705
16,2.1948926280214779
17,-3.321199173396053
18,2.9705500402749296
2,1, 1, 1, 0,24,30.00,45.00,Tuesday
7,-1.7
8,0.0
9,0.0
10,0.0
11,0.0
12,0.0
13,0.0
14,2.697370331205464
15,-3.4279806311702805
16,2.163510037621336
17,-3.3823695356109058
18,2.942686065041065
2,1, 1, 1, 0,24,45.00,60.00,Tuesday
7,-1.7
8,0.0
9,0.0
10,0.0
11,0.0
12,0.0
13,0.0
14,2.670231303393973
15,-3.482351302670651
16,2.1327555935124566
17,-3.4434258613788417
18,2.916077816355174
End of Data
 Number of Records Written=        1152
