Program Version,EnergyPlus, Version 9.5.0-de239b2e5f, YMD=2023.02.16 18:15
1,5,Environment Title[],Latitude[deg],Longitude[deg],Time Zone[],Elevation[m]
2,8,Day of Simulation[],Month[],Day of Month[],DST Indicator[1=yes 0=no],Hour[],StartMinute[],EndMinute[],DayType
3,5,Cumulative Day of Simulation[],Month[],Day of Month[],DST Indicator[1=yes 0=no],DayType  ! When Daily Report Variables Requested
4,2,Cumulative Days of Simulation[],Month[]  ! When Monthly Report Variables Requested
5,1,Cumulative Days of Simulation[] ! When Run Period Report Variables Requested
6,1,Calendar Year of Simulation[] ! When Annual Report Variables Requested
7,1,Environment,Site Outdoor Air Drybulb Temperature [C] !TimeStep
8,1,ZONE ONE,Zone Windows Total Transmitted Solar Radiation Rate [W] !TimeStep
9,1,ZN001:WALL001,Surface Outside Face Sunlit Fraction [] !TimeStep
10,1,ZN001:WALL001,Surface Outside Face Incident Solar Radiation Rate per Area [W/m2] !TimeStep
11,1,ZN001:WALL001:WIN001,Surface Outside Face Sunlit Fraction [] !TimeStep
12,1,ZN001:WALL001:WIN001,Surface Outside Face Incident Solar Radiation Rate per Area [W/m2] !TimeStep
13,1,ZN001:WALL001:WIN001,Surface Window Transmitted Solar Radiation Rate [W] !TimeStep
14,1,ZN001:WALL001,Surface Inside Face Temperature [C] !TimeStep
15,1,ZN001:WALL001,Surface Outside Face Temperature [C] !TimeStep
16,1,ZN001:WALL001:WIN001,Surface Inside Face Temperature [C] !TimeStep
17,1,ZN001:WALL001:WIN001,Surface Outside Face Temperature [C] !TimeStep
18,1,ZONE ONE,Zone Mean Air Temperature [C] !TimeStep
End of Data Dictionary
1,RUN PERIOD 1,  41.98, -87.92,  -6.00, 201.00
2,1, 1, 1, 0, 1, 0.00,15.00,Tuesday
7,-4.324999999999999
8,0.0
9,0.0
10,0.0
11,0.0
12,0.0
13,0.0
14,1.5004421456786837
15,-5.97664174411256
16,0.9854044110138034
17,-5.873783692516099
18,1.8571446895930007
2,1, 1, 1, 0, 1,15.00,30.00,Tuesday
7,-6.949999999999999
8,0.0
9,0.0
10,0.0
11,0.0
12,0.0
13,0.0
14,1.3329072807731124
15,-8.444545624894144
16,0.6510082171926115
17,-8.17734167924516
18,1.7843827872841159
2,1, 1, 1, 0, 1,30.00,45.00,Tuesday
7,-9.575
8,0.0
9,0.0
10,0.0
11,0.0
12,0.0
13,0.0
14,1.148614153646796
15,-10.920610574184412
16,0.31479659772355719
17,-10.488242885213595
18,1.6826036865747365
2,1, 1, 1, 0, 1,45.00,60.00,Tuesday
7,-12.2
8,0.0
9,0.0
10,0.0
11,0.0
12,0.0
13,0.0
14,0.9506863640581574
15,-13.403220706819729
16,-0.03366760960227566
17,-12.817979853166662
18,1.5596052024237009
2,1, 1, 1, 0, 2, 0.00,15.00,Tuesday
7,-12.075
8,0.0
9,0.0
10,0.0
11,0.0
12,0.0
13,0.0
14,0.9047459992641909
15,-13.204658150163452
16,-0.1276204186248151
17,-12.674155146840406
18,1.4468196128457136
2,1, 1, 1, 0, 2,15.00,30.00,Tuesday
7,-11.95
8,0.0
9,0.0
10,0.0
11,0.0
12,0.0
13,0.0
14,0.8435629322977115
15,-13.027196237991412
16,-0.16945485518203896
17,-12.489841968958786
18,1.360676033158541
2,1, 1, 1, 0, 2,30.00,45.00,Tuesday
7,-11.825
8,0.0
9,0.0
10,0.0
11,0.0
12,0.0
13,0.0
14,0.7969780780356296
15,-12.84862265748158
16,-0.20710359886800235
17,-12.314643790286596
18,1.2982054235210324
2,1, 1, 1, 0, 2,45.00,60.00,Tuesday
7,-11.7
8,0.0
9,0.0
10,0.0
11,0.0
12,0.0
13,0.0
14,0.7603970630294251
15,-12.670107075709888
16,-0.23294255229728834
17,-12.138570494655028
18,1.250589608257399
2,1, 1, 1, 0, 3, 0.00,15.00,Tuesday
7,-11.549999999999999
8,0.0
9,0.0
10,0.0
11,0.0
12,0.0
13,0.0
14,0.7248137557662276
15,-12.545701670315255
16,-0.25468740663245628
17,-12.01273452418576
18,1.2098486241844229
2,1, 1, 1, 0, 3,15.00,30.00,Tuesday
7,-11.399999999999999
8,0.0
9,0.0
10,0.0
11,0.0
12,0.0
13,0.0
14,0.6924501635760667
15,-12.422729184235843
16,-0.27590425666409149
17,-11.880816353920693
18,1.1716668437070117
2,1, 1, 1, 0, 3,30.00,45.00,Tuesday
7,-11.25
8,0.0
9,0.0
10,0.0
11,0.0
12,0.0
13,0.0
14,0.6610023415688013
15,-12.301365299214954
16,-0.29528586394008018
17,-11.749051709106766
18,1.1345814687128558
2,1, 1, 1, 0, 3,45.00,60.00,Tuesday
7,-11.1
8,0.0
9,0.0
10,0.0
11,0.0
12,0.0
13,0.0
14,0.6309998328163937
15,-12.181674358728314
16,-0.31402793562835998
17,-11.61800632179893
18,1.098405350820015
2,1, 1, 1, 0, 4, 0.00,15.00,Tuesday
7,-11.1
8,0.0
9,0.0
10,0.0
11,0.0
12,0.0
13,0.0
14,0.59583636448991
15,-12.150711852453896
16,-0.3464846124560381
17,-11.604485437969288
18,1.0625675874768835
2,1, 1, 1, 0, 4,15.00,30.00,Tuesday
7,-11.1
8,0.0
9,0.0
10,0.0
11,0.0
12,0.0
13,0.0
14,0.562207726448472
15,-12.120861922138083
16,-0.3802130027677322
17,-11.600099972542012
18,1.0268245291999996
2,1, 1, 1, 0, 4,30.00,45.00,Tuesday
7,-11.1
8,0.0
9,0.0
10,0.0
11,0.0
12,0.0
13,0.0
14,0.5285121391468705
15,-12.09271085045464
16,-0.4113021938658221
17,-11.59331525017501
18,0.9911451919464623
2,1, 1, 1, 0, 4,45.00,60.00,Tuesday
7,-11.1
8,0.0
9,0.0
10,0.0
11,0.0
12,0.0
13,0.0
14,0.4948508239287084
15,-12.066074612379778
16,-0.4426754801266952
17,-11.586373119159646
18,0.9555552235882991
2,1, 1, 1, 0, 5, 0.00,15.00,Tuesday
7,-10.975
8,0.0
9,0.0
10,0.0
11,0.0
12,0.0
13,0.0
14,0.4675458309509047
15,-11.943730645411991
16,-0.45979743158466138
17,-11.476011351833336
18,0.9208435631997584
2,1, 1, 1, 0, 5,15.00,30.00,Tuesday
7,-10.85
8,0.0
9,0.0
10,0.0
11,0.0
12,0.0
13,0.0
14,0.4393844948332363
15,-11.821523697139849
16,-0.47727558153610519
17,-11.362949199352784
18,0.887355989101749
2,1, 1, 1, 0, 5,30.00,45.00,Tuesday
7,-10.725
8,0.0
9,0.0
10,0.0
11,0.0
12,0.0
13,0.0
14,0.4120782171788973
15,-11.699264495909319
16,-0.49459579576011949
17,-11.249696922247722
18,0.8549160819759799
2,1, 1, 1, 0, 5,45.00,60.00,Tuesday
7,-10.6
8,0.0
9,0.0
10,0.0
11,0.0
12,0.0
13,0.0
14,0.38542813317168198
15,-11.577020094972872
16,-0.5112056942934373
17,-11.136377567066689
18,0.8232528986100616
2,1, 1, 1, 0, 6, 0.00,15.00,Tuesday
7,-10.6
8,0.0
9,0.0
10,0.0
11,0.0
12,0.0
13,0.0
14,0.35064294407069299
15,-11.577726692666213
16,-0.5429402110102046
17,-11.134256932023107
18,0.7910132290953418
2,1, 1, 1, 0, 6,15.00,30.00,Tuesday
7,-10.6
8,0.0
9,0.0
10,0.0
11,0.0
12,0.0
13,0.0
14,0.31739485795709557
15,-11.578313156960736
16,-0.5748170621881741
17,-11.1356328922339
18,0.7575574384422169
2,1, 1, 1, 0, 6,30.00,45.00,Tuesday
7,-10.6
8,0.0
9,0.0
10,0.0
11,0.0
12,0.0
13,0.0
14,0.283547548202079
15,-11.578976696029786
16,-0.6062293512649148
17,-11.137858941190189
18,0.7231210849170358
2,1, 1, 1, 0, 6,45.00,60.00,Tuesday
7,-10.6
8,0.0
9,0.0
10,0.0
11,0.0
12,0.0
13,0.0
14,0.24938413349703393
15,-11.579635963931067
16,-0.6380862064559096
17,-11.140388819328962
18,0.6881438837195448
2,1, 1, 1, 0, 7, 0.00,15.00,Tuesday
7,-10.6
8,0.0
9,0.0
10,0.0
11,0.0
12,0.0
13,0.0
14,0.21845070432811343
15,-11.55410080889206
16,-0.6683555646228001
17,-11.135127477113088
18,0.6534741552988079
2,1, 1, 1, 0, 7,15.00,30.00,Tuesday
7,-10.6
8,0.0
9,0.0
10,0.0
11,0.0
12,0.0
13,0.0
14,0.18638743183606844
15,-11.52991746645176
16,-0.6974845730272818
17,-11.128056500356763
18,0.619435096607785
2,1, 1, 1, 0, 7,30.00,45.00,Tuesday
7,-10.6
8,0.0
9,0.0
10,0.0
11,0.0
12,0.0
13,0.0
14,0.15469507607779235
15,-11.506923524941252
16,-0.7270289512506452
17,-11.120834423839199
18,0.5859003089330662
2,1, 1, 1, 0, 7,45.00,60.00,Tuesday
7,-10.6
8,0.0
9,0.0
10,0.0
11,0.0
12,0.0
13,0.0
14,0.12327031122570828
15,-11.485087543145334
16,-0.756276895438873
17,-11.113717292249817
18,0.5526928213777937
2,1, 1, 1, 0, 8, 0.00,15.00,Tuesday
7,-10.45
8,0.0
9,0.0
10,0.0
11,0.0
12,0.0
13,0.0
14,0.08972863670086676
15,-11.437282389498677
16,-0.7800976696437942
17,-11.073604466066286
18,0.5190258585824867
2,1, 1, 1, 0, 8,15.00,30.00,Tuesday
7,-10.3
8,57.69019600974546
9,1.0
10,22.819555959623899
11,1.0
12,22.819555959623899
13,57.69019600974546
14,0.1576843306326577
15,-9.76461648021109
16,-0.37357868914762096
17,-10.72110186301552
18,0.4985434032696472
2,1, 1, 1, 0, 8,30.00,45.00,Tuesday
7,-10.15
8,285.3800070249231
9,1.0
10,109.75755355442667
11,1.0
12,109.75755355442667
13,285.3800070249231
14,0.497998222456275
15,-3.4066204587350947
16,1.3790050121655214
17,-9.440221593967408
18,0.527290300982101
2,1, 1, 1, 0, 8,45.00,60.00,Tuesday
7,-10.0
8,524.6055123031704
9,1.0
10,195.8764694434918
11,1.0
12,195.8764694434918
13,524.6055123031704
14,0.9183886827076011
15,3.0873032212408315
16,3.0056771854614228
17,-8.160751555668356
18,0.6149071036425513
2,1, 1, 1, 0, 9, 0.00,15.00,Tuesday
7,-9.725
8,768.4491717444191
9,1.0
10,278.97248314719988
11,1.0
12,278.97248314719988
13,768.4491717444191
14,1.2406563520287628
15,8.267482795666517
16,4.495760122626052
17,-7.047974659348029
18,0.7537426506106763
2,1, 1, 1, 0, 9,15.00,30.00,Tuesday
7,-9.45
8,1030.6249243631592
9,1.0
10,364.91995730569456
11,1.0
12,364.91995730569456
13,1030.6249243631592
14,1.6095186789375534
15,13.347493872189052
16,5.984264671699066
17,-5.952263801304298
18,0.9306276598485387
2,1, 1, 1, 0, 9,30.00,45.00,Tuesday
7,-9.175
8,1210.4804273274606
9,1.0
10,420.35879993239237
11,1.0
12,420.35879993239237
13,1210.4804273274606
14,1.8490648468975406
15,16.106800725892869
16,6.987122463043249
17,-5.288442495537765
18,1.126572093115499
2,1, 1, 1, 0, 9,45.00,60.00,Tuesday
7,-8.9
8,1398.6777532574607
9,1.0
10,478.00138373643099
11,1.0
12,478.00138373643099
13,1398.6777532574607
14,2.1336080153243155
15,19.10233495820356
16,7.986554491083382
17,-4.594465957552984
18,1.3353473381965542
2,1, 1, 1, 0,10, 0.00,15.00,Tuesday
7,-8.350000000000002
8,1592.0755180216234
9,1.0
10,536.9185644770597
11,1.0
12,536.9185644770597
13,1592.0755180216234
14,2.3573349364223499
15,20.222693307747599
16,9.019620401442922
17,-3.7826680740390659
18,1.5592220395306314
2,1, 1, 1, 0,10,15.00,30.00,Tuesday
7,-7.800000000000001
8,1792.701648704855
9,1.0
10,598.0969199229219
11,1.0
12,598.0969199229219
13,1792.701648704855
14,2.6050577426659138
15,21.477902838142069
16,10.07946739290503
17,-2.9945601454492136
18,1.794997110965191
2,1, 1, 1, 0,10,30.00,45.00,Tuesday
7,-7.25
8,1928.119448426844
9,1.0
10,637.6133352894237
11,1.0
12,637.6133352894237
13,1928.119448426844
14,2.7854025447919379
15,21.539528567755445
16,10.829132898889725
17,-2.4521920422528185
18,2.029165464504066
2,1, 1, 1, 0,10,45.00,60.00,Tuesday
7,-6.7
8,2061.422449283195
9,1.0
10,676.6412284283772
11,1.0
12,676.6412284283772
13,2061.422449283195
14,2.980233543951089
15,21.701248245750106
16,11.547525050542447
17,-1.8875350141095169
18,2.254034974036008
2,1, 1, 1, 0,11, 0.00,15.00,Tuesday
7,-6.275
8,2192.1032501103888
9,1.0
10,715.0112779846514
11,1.0
12,715.0112779846514
13,2192.1032501103888
14,3.2516799796298767
15,23.798517479660565
16,12.267321289974007
17,-1.156339056833076
18,2.4730530647417687
2,1, 1, 1, 0,11,15.00,30.00,Tuesday
7,-5.85
8,2319.457313777197
9,1.0
10,752.5077794605232
11,1.0
12,752.5077794605232
13,2319.457313777197
14,3.50789766051795
15,25.733123260079336
16,12.974265573466937
17,-0.4374064535080606
18,2.6909384019559785
2,1, 1, 1, 0,11,30.00,45.00,Tuesday
7,-5.425
8,2285.6965649767259
9,1.0
10,742.5988714321785
11,1.0
12,742.5988714321785
13,2285.6965649767259
14,3.6452496811529926
15,25.584680135895004
16,13.030082974403058
17,-0.13747537395488508
18,2.8935293043341008
2,1, 1, 1, 0,11,45.00,60.00,Tuesday
7,-5.0
8,2235.2264038775226
9,1.0
10,727.8169025450712
11,1.0
12,727.8169025450712
13,2235.2264038775226
14,3.77874904842763
15,25.35495422630505
16,12.990123387327913
17,0.13030966311151816
18,3.071279245835471
2,1, 1, 1, 0,12, 0.00,15.00,Tuesday
7,-4.575
8,2148.0872974320998
9,1.0
10,700.3759009170325
11,1.0
12,700.3759009170325
13,2148.0872974320998
14,3.8652100772720239
15,24.611903183796774
16,12.768542661526852
17,0.33596985434724049
18,3.2199748370186098
2,1, 1, 1, 0,12,15.00,30.00,Tuesday
7,-4.15
8,2080.433669087304
9,1.0
10,681.6705029034473
11,1.0
12,681.6705029034473
13,2080.433669087304
14,3.9701868223025138
15,24.281038152208486
16,12.65086909900674
17,0.6174234178301958
18,3.346293245691622
2,1, 1, 1, 0,12,30.00,45.00,Tuesday
7,-3.7249999999999998
8,1821.205491197466
9,1.0
10,602.01865277251
11,1.0
12,602.01865277251
13,1821.205491197466
14,3.87626900557774
15,21.252391588694129
16,11.68608175012207
17,0.4033825063531822
18,3.4347483750638165
2,1, 1, 1, 0,12,45.00,60.00,Tuesday
7,-3.3
8,1484.3573874927543
9,1.0
10,493.55004396206007
11,1.0
12,493.55004396206007
13,1484.3573874927543
14,3.6921512484963459
15,17.073306009618987
16,10.220415671210504
17,-0.09386833125267913
18,3.4689273094869939
2,1, 1, 1, 0,13, 0.00,15.00,Tuesday
7,-3.0249999999999996
8,1217.3467534298216
9,1.0
10,412.335026418112
11,1.0
12,412.335026418112
13,1217.3467534298216
14,3.570608006143162
15,14.22804214654898
16,9.07193488215637
17,-0.4224789610105404
18,3.4550209599495345
2,1, 1, 1, 0,13,15.00,30.00,Tuesday
7,-2.75
8,884.698883173216
9,1.0
10,305.94037763660148
11,1.0
12,305.94037763660148
13,884.698883173216
14,3.327289865574562
15,10.05314653142566
16,7.507007474664306
17,-0.9906057515990483
18,3.396985806586174
2,1, 1, 1, 0,13,30.00,45.00,Tuesday
7,-2.475
8,804.3446509208166
9,1.0
10,281.0763483922329
11,1.0
12,281.0763483922329
13,804.3446509208166
14,3.3031157542645266
15,9.542158096755954
16,7.111410061831691
17,-0.8645207027625474
18,3.3299271294717647
2,1, 1, 1, 0,13,45.00,60.00,Tuesday
7,-2.2
8,725.6418045118138
9,1.0
10,256.7721209415886
11,1.0
12,256.7721209415886
13,725.6418045118138
14,3.2684432982012989
15,8.933732306237708
16,6.763780988559006
17,-0.7163502588218762
18,3.276015870830115
2,1, 1, 1, 0,14, 0.00,15.00,Tuesday
7,-1.9250000000000003
8,590.7556685446293
9,1.0
10,210.73276284570657
11,1.0
12,210.73276284570657
13,590.7556685446293
14,3.1646182570753749
15,7.381724898516547
16,6.05494471527868
17,-0.8138470354239757
18,3.2298276069169566
2,1, 1, 1, 0,14,15.00,30.00,Tuesday
7,-1.6500000000000002
8,521.0384688260733
9,1.0
10,189.38488290342594
11,1.0
12,189.38488290342594
13,521.0384688260733
14,3.1475012324056235
15,6.980183508953012
16,5.717643620165859
17,-0.7012789960396049
18,3.190756399627172
2,1, 1, 1, 0,14,30.00,45.00,Tuesday
7,-1.375
8,498.15229057485149
9,1.0
10,179.3940297802914
11,1.0
12,179.3940297802914
13,498.15229057485149
14,3.147453721291587
15,7.0992411385932299
16,5.5790406936237109
17,-0.4785019476673824
18,3.1605155891261806
2,1, 1, 1, 0,14,45.00,60.00,Tuesday
7,-1.1
8,474.5397565900047
9,1.0
10,169.43349014176136
11,1.0
12,169.43349014176136
13,474.5397565900047
14,3.147838946001871
15,7.196540250036341
16,5.439833319550701
17,-0.2562452699484652
18,3.1380690974575504
2,1, 1, 1, 0,15, 0.00,15.00,Tuesday
7,-1.1
8,498.70949945430098
9,1.0
10,178.15692317953907
11,1.0
12,178.15692317953907
13,498.70949945430098
14,3.1959188254208255
15,8.012858434543404
16,5.581782467159826
17,-0.13710341191188037
18,3.1253908005685866
2,1, 1, 1, 0,15,15.00,30.00,Tuesday
7,-1.1
8,468.37919296528846
9,1.0
10,166.40516310952945
11,1.0
12,166.40516310952945
13,468.37919296528846
14,3.16237730975695
15,7.6471771726374639
16,5.395995192999692
17,-0.2263719925113037
18,3.116020294373777
2,1, 1, 1, 0,15,30.00,45.00,Tuesday
7,-1.1
8,393.0687015115151
9,1.0
10,140.8967369711617
11,1.0
12,140.8967369711617
13,393.0687015115151
14,3.0769051333876158
15,6.438607217171764
16,4.959083065745517
17,-0.5010794320409104
18,3.098225809727216
2,1, 1, 1, 0,15,45.00,60.00,Tuesday
7,-1.1
8,321.7616953401986
9,1.0
10,116.57355796743004
11,1.0
12,116.57355796743004
13,321.7616953401986
14,2.9836081138807715
15,5.226597899488378
16,4.519034077279116
17,-0.7808537594843301
18,3.0665534829679585
2,1, 1, 1, 0,16, 0.00,15.00,Tuesday
7,-1.1
8,253.93333576075279
9,1.0
10,93.14939272689483
11,1.0
12,93.14939272689483
13,253.93333576075279
14,2.9041829889828216
15,4.171895658597298
16,4.084416193764582
17,-0.9964062160948402
18,3.0216600323838547
2,1, 1, 1, 0,16,15.00,30.00,Tuesday
7,-1.1
8,156.7583535986634
9,1.0
10,57.94047897402063
11,1.0
12,57.94047897402063
13,156.7583535986634
14,2.750782759123959
15,2.041375029586402
16,3.4069343241699245
17,-1.4119506330210925
18,2.96022392559662
2,1, 1, 1, 0,16,30.00,45.00,Tuesday
7,-1.1
8,120.7720561106513
9,1.0
10,45.38251793443488
11,1.0
12,45.38251793443488
13,120.7720561106513
14,2.6926935975893637
15,1.4232793983703148
16,3.106833980739566
17,-1.5426594082484826
18,2.8907304352725986
2,1, 1, 1, 0,16,45.00,60.00,Tuesday
7,-1.1
8,83.83798514208277
9,1.0
10,32.02625108222755
11,1.0
12,32.02625108222755
13,83.83798514208277
14,2.6045065429356208
15,0.5514455233073805
16,2.794063338162914
17,-1.7042380442632066
18,2.819920012685473
2,1, 1, 1, 0,17, 0.00,15.00,Tuesday
7,-1.1
8,45.806462499356218
9,1.0
10,17.762198626050539
11,1.0
12,17.762198626050539
13,45.806462499356218
14,2.489227771677275
15,-0.7116757931521032
16,2.4521240207715779
17,-2.0025233144817777
18,2.7454032672571335
2,1, 1, 1, 0,17,15.00,30.00,Tuesday
7,-1.1
8,0.0
9,0.0
10,0.0
11,0.0
12,0.0
13,0.0
14,2.3276447889784808
15,-2.553912660529008
16,2.03866339769354
17,-2.3088558931397076
18,2.656220293095001
2,1, 1, 1, 0,17,30.00,45.00,Tuesday
7,-1.1
8,0.0
9,0.0
10,0.0
11,0.0
12,0.0
13,0.0
14,2.2834549688479477
15,-2.695080460299961
16,1.9452468314153749
17,-2.3948361978492018
18,2.5651388329656616
2,1, 1, 1, 0,17,45.00,60.00,Tuesday
7,-1.1
8,0.0
9,0.0
10,0.0
11,0.0
12,0.0
13,0.0
14,2.224653513393574
15,-2.8954607960824809
16,1.8888357456373797
17,-2.4947338552658495
18,2.486710876494212
2,1, 1, 1, 0,18, 0.00,15.00,Tuesday
7,-1.25
8,0.0
9,0.0
10,0.0
11,0.0
12,0.0
13,0.0
14,2.1768067833791404
15,-3.0420964125519847
16,1.8220907470151815
17,-2.647153333222036
18,2.4246935749476488
2,1, 1, 1, 0,18,15.00,30.00,Tuesday
7,-1.4
8,0.0
9,0.0
10,0.0
11,0.0
12,0.0
13,0.0
14,2.1338841474809104
15,-3.194409542073304
16,1.7726669918633889
17,-2.786957667042941
18,2.37591154409419
2,1, 1, 1, 0,18,30.00,45.00,Tuesday
7,-1.5499999999999999
8,0.0
9,0.0
10,0.0
11,0.0
12,0.0
13,0.0
14,2.096489759525442
15,-3.3460723125437759
16,1.7233976973203654
17,-2.93113386220665
18,2.3357135340967845
2,1, 1, 1, 0,18,45.00,60.00,Tuesday
7,-1.7
8,0.0
9,0.0
10,0.0
11,0.0
12,0.0
13,0.0
14,2.060764687831147
15,-3.4979654455778355
16,1.6778909959832618
17,-3.0746638682899176
18,2.3004263179516197
2,1, 1, 1, 0,19, 0.00,15.00,Tuesday
7,-1.825
8,0.0
9,0.0
10,0.0
11,0.0
12,0.0
13,0.0
14,2.0527322388301858
15,-3.336051388747647
16,1.6504780697953266
17,-3.0514767436022796
18,2.2714984725650324
2,1, 1, 1, 0,19,15.00,30.00,Tuesday
7,-1.9500000000000002
8,0.0
9,0.0
10,0.0
11,0.0
12,0.0
13,0.0
14,2.0446099271952176
15,-3.2571847148931218
16,1.6334801740167678
17,-3.058551432949457
18,2.2503966341271708
2,1, 1, 1, 0,19,30.00,45.00,Tuesday
7,-2.075
8,0.0
9,0.0
10,0.0
11,0.0
12,0.0
13,0.0
14,2.0315515661762197
15,-3.3276383436942238
16,1.616414644585916
17,-3.1449600510241
18,2.235434853663246
2,1, 1, 1, 0,19,45.00,60.00,Tuesday
7,-2.2
8,0.0
9,0.0
10,0.0
11,0.0
12,0.0
13,0.0
14,2.021883770434077
15,-3.2947658968018915
16,1.6016904665692665
17,-3.1674070968110756
18,2.2236082766096549
2,1, 1, 1, 0,20, 0.00,15.00,Tuesday
7,-1.9250000000000003
8,0.0
9,0.0
10,0.0
11,0.0
12,0.0
13,0.0
14,2.0275197112034428
15,-2.9908911837899128
16,1.6274862673127473
17,-2.895781860528018
18,2.2142253814241799
2,1, 1, 1, 0,20,15.00,30.00,Tuesday
7,-1.6500000000000002
8,0.0
9,0.0
10,0.0
11,0.0
12,0.0
13,0.0
14,2.033641677965096
15,-2.6902910979467244
16,1.6538346542188265
17,-2.6214384140124027
18,2.207301746999132
2,1, 1, 1, 0,20,30.00,45.00,Tuesday
7,-1.375
8,0.0
9,0.0
10,0.0
11,0.0
12,0.0
13,0.0
14,2.041024261995275
15,-2.391110400975892
16,1.6813001144644205
17,-2.3471210538909874
18,2.2025648872811818
2,1, 1, 1, 0,20,45.00,60.00,Tuesday
7,-1.1
8,0.0
9,0.0
10,0.0
11,0.0
12,0.0
13,0.0
14,2.0496232482946898
15,-2.0933068489333159
16,1.7100561570533728
17,-2.0728157132886055
18,2.1995804190565306
2,1, 1, 1, 0,21, 0.00,15.00,Tuesday
7,-1.25
8,0.0
9,0.0
10,0.0
11,0.0
12,0.0
13,0.0
14,2.0148280816591339
15,-2.3852901888838655
16,1.680288392398893
17,-2.301210714006629
18,2.192837352065155
2,1, 1, 1, 0,21,15.00,30.00,Tuesday
7,-1.4
8,0.0
9,0.0
10,0.0
11,0.0
12,0.0
13,0.0
14,1.9785332189431196
15,-2.6075966406223998
16,1.6402472856456143
17,-2.470694301347521
18,2.177614847916994
2,1, 1, 1, 0,21,30.00,45.00,Tuesday
7,-1.5499999999999999
8,0.0
9,0.0
10,0.0
11,0.0
12,0.0
13,0.0
14,1.9294045544732175
15,-2.9660363152276485
16,1.5849939205403985
17,-2.7264214576194378
18,2.1522090850128605
2,1, 1, 1, 0,21,45.00,60.00,Tuesday
7,-1.7
8,0.0
9,0.0
10,0.0
11,0.0
12,0.0
13,0.0
14,1.8750599306172829
15,-3.4340530184676
16,1.5175967350479596
17,-3.0135752723161888
18,2.118031507082453
2,1, 1, 1, 0,22, 0.00,15.00,Tuesday
7,-1.5499999999999999
8,0.0
9,0.0
10,0.0
11,0.0
12,0.0
13,0.0
14,1.893583475878735
15,-2.9273183263548887
16,1.518917151907317
17,-2.700075413401919
18,2.088269773370381
2,1, 1, 1, 0,22,15.00,30.00,Tuesday
7,-1.4
8,0.0
9,0.0
10,0.0
11,0.0
12,0.0
13,0.0
14,1.9041239618575932
15,-2.5840600703231746
16,1.544828952702403
17,-2.4569108506073009
18,2.070834750988084
2,1, 1, 1, 0,22,30.00,45.00,Tuesday
7,-1.25
8,0.0
9,0.0
10,0.0
11,0.0
12,0.0
13,0.0
14,1.9120187616367204
15,-2.3581093996137407
16,1.5650393853871947
17,-2.277662640450103
18,2.064241664957298
2,1, 1, 1, 0,22,45.00,60.00,Tuesday
7,-1.1
8,0.0
9,0.0
10,0.0
11,0.0
12,0.0
13,0.0
14,1.9235948840768316
15,-2.065050859973812
16,1.5929089138510904
17,-2.0477397572143447
18,2.063737584239183
2,1, 1, 1, 0,23, 0.00,15.00,Tuesday
7,-1.25
8,0.0
9,0.0
10,0.0
11,0.0
12,0.0
13,0.0
14,1.889730981446792
15,-2.3687329486553265
16,1.5559192560641578
17,-2.362193268611236
18,2.06021863834653
2,1, 1, 1, 0,23,15.00,30.00,Tuesday
7,-1.4
8,0.0
9,0.0
10,0.0
11,0.0
12,0.0
13,0.0
14,1.8563836790487217
15,-2.6732712595499859
16,1.5002431206265783
17,-2.678055131628696
18,2.0482204553626146
2,1, 1, 1, 0,23,30.00,45.00,Tuesday
7,-1.5499999999999999
8,0.0
9,0.0
10,0.0
11,0.0
12,0.0
13,0.0
14,1.819898248199982
15,-2.978320855324834
16,1.443069037918633
17,-2.9937112342489629
18,2.0277543532541646
2,1, 1, 1, 0,23,45.00,60.00,Tuesday
7,-1.7
8,0.0
9,0.0
10,0.0
11,0.0
12,0.0
13,0.0
14,1.7789842716492055
15,-3.2837316935526408
16,1.3827102377426855
17,-3.309392170419301
18,2.0009090591407459
2,1, 1, 1, 0,24, 0.00,15.00,Tuesday
7,-1.7
8,0.0
9,0.0
10,0.0
11,0.0
12,0.0
13,0.0
14,1.756640565632849
15,-3.337331333333717
16,1.3492379964407065
17,-3.3667935034073368
18,1.9725056603585614
2,1, 1, 1, 0,24,15.00,30.00,Tuesday
7,-1.7
8,0.0
9,0.0
10,0.0
11,0.0
12,0.0
13,0.0
14,1.7311690477679423
15,-3.391790022182332
16,1.32162592915887
17,-3.42760642959729
18,1.9455595524051708
2,1, 1, 1, 0,24,30.00,45.00,Tuesday
7,-1.7
8,0.0
9,0.0
10,0.0
11,0.0
12,0.0
13,0.0
14,1.7062464594845833
15,-3.4461137171477147
16,1.2931692589227169
17,-3.488661400553383
18,1.9204787440278395
2,1, 1, 1, 0,24,45.00,60.00,Tuesday
7,-1.7
8,0.0
9,0.0
10,0.0
11,0.0
12,0.0
13,0.0
14,1.6818397576641256
15,-3.500436932923956
16,1.2652513583740302
17,-3.54961666966733
18,1.8966293622864353
End of Data
 Number of Records Written=        1152
