Program Version,EnergyPlus, Version 9.5.0-de239b2e5f, YMD=2023.02.16 18:15
1,5,Environment Title[],Latitude[deg],Longitude[deg],Time Zone[],Elevation[m]
2,8,Day of Simulation[],Month[],Day of Month[],DST Indicator[1=yes 0=no],Hour[],StartMinute[],EndMinute[],DayType
3,5,Cumulative Day of Simulation[],Month[],Day of Month[],DST Indicator[1=yes 0=no],DayType  ! When Daily Report Variables Requested
4,2,Cumulative Days of Simulation[],Month[]  ! When Monthly Report Variables Requested
5,1,Cumulative Days of Simulation[] ! When Run Period Report Variables Requested
6,1,Calendar Year of Simulation[] ! When Annual Report Variables Requested
7,1,Environment,Site Outdoor Air Drybulb Temperature [C] !TimeStep
8,1,ZONE ONE,Zone Windows Total Transmitted Solar Radiation Rate [W] !TimeStep
9,1,ZN001:WALL001,Surface Outside Face Sunlit Fraction [] !TimeStep
10,1,ZN001:WALL001,Surface Outside Face Incident Solar Radiation Rate per Area [W/m2] !TimeStep
11,1,ZN001:WALL001:WIN001,Surface Outside Face Sunlit Fraction [] !TimeStep
12,1,ZN001:WALL001:WIN001,Surface Outside Face Incident Solar Radiation Rate per Area [W/m2] !TimeStep
13,1,ZN001:WALL001:WIN001,Surface Window Transmitted Solar Radiation Rate [W] !TimeStep
14,1,ZN001:WALL001,Surface Inside Face Temperature [C] !TimeStep
15,1,ZN001:WALL001,Surface Outside Face Temperature [C] !TimeStep
16,1,ZN001:WALL001:WIN001,Surface Inside Face Temperature [C] !TimeStep
17,1,ZN001:WALL001:WIN001,Surface Outside Face Temperature [C] !TimeStep
18,1,ZONE ONE,Zone Mean Air Temperature [C] !TimeStep
End of Data Dictionary
1,RUN PERIOD 1,  41.98, -87.92,  -6.00, 201.00
2,1, 1, 1, 0, 1, 0.00,15.00,Tuesday
7,-4.324999999999999
8,0.0
9,0.0
10,0.0
11,0.0
12,0.0
13,0.0
14,1.5698131565501903
15,-5.9753703465449139
16,1.1165951915263577
17,-5.916518451706338
18,1.9291765805895902
2,1, 1, 1, 0, 1,15.00,30.00,Tuesday
7,-6.949999999999999
8,0.0
9,0.0
10,0.0
11,0.0
12,0.0
13,0.0
14,1.4026775881571184
15,-8.443263096703948
16,0.8003353166486704
17,-8.233903883014819
18,1.8568703052916507
2,1, 1, 1, 0, 1,30.00,45.00,Tuesday
7,-9.575
8,0.0
9,0.0
10,0.0
11,0.0
12,0.0
13,0.0
14,1.2189444785480497
15,-10.91929700038306
16,0.4822236978898786
17,-10.55864785246439
18,1.7558176731743498
2,1, 1, 1, 0, 1,45.00,60.00,Tuesday
7,-12.2
8,0.0
9,0.0
10,0.0
11,0.0
12,0.0
13,0.0
14,1.0216965119333628
15,-13.40187580827436
16,0.1516478472790368
17,-12.902050466418359
18,1.63373157311806
2,1, 1, 1, 0, 2, 0.00,15.00,Tuesday
7,-12.075
8,0.0
9,0.0
10,0.0
11,0.0
12,0.0
13,0.0
14,0.9761072582173083
15,-13.203289056373136
16,0.05601190067420703
17,-12.755577598314972
18,1.5217128283409
2,1, 1, 1, 0, 2,15.00,30.00,Tuesday
7,-11.95
8,0.0
9,0.0
10,0.0
11,0.0
12,0.0
13,0.0
14,0.9152712949939474
15,-13.025822006754093
16,0.012885470428216195
17,-12.569803816434785
18,1.436072286485057
2,1, 1, 1, 0, 2,30.00,45.00,Tuesday
7,-11.825
8,0.0
9,0.0
10,0.0
11,0.0
12,0.0
13,0.0
14,0.8689045369577683
15,-12.847249200683404
16,-0.02621050027914862
17,-12.393179425212452
18,1.373887912934446
2,1, 1, 1, 0, 2,45.00,60.00,Tuesday
7,-11.7
8,0.0
9,0.0
10,0.0
11,0.0
12,0.0
13,0.0
14,0.8324548978758209
15,-12.66873488772928
16,-0.053577389977192527
17,-12.215758300317873
18,1.3264289534935757
2,1, 1, 1, 0, 3, 0.00,15.00,Tuesday
7,-11.549999999999999
8,0.0
9,0.0
10,0.0
11,0.0
12,0.0
13,0.0
14,0.7969627240448539
15,-12.544291982555805
16,-0.07676592433790575
17,-12.090189014356384
18,1.2857801713894972
2,1, 1, 1, 0, 3,15.00,30.00,Tuesday
7,-11.399999999999999
8,0.0
9,0.0
10,0.0
11,0.0
12,0.0
13,0.0
14,0.7646657564973646
15,-12.42128014745756
16,-0.09938882466508403
17,-11.958601725380845
18,1.247661035884782
2,1, 1, 1, 0, 3,30.00,45.00,Tuesday
7,-11.25
8,0.0
9,0.0
10,0.0
11,0.0
12,0.0
13,0.0
14,0.734268454632072
15,-12.299874735176573
16,-0.12016996548652515
17,-11.82721555478156
18,1.210746277773727
2,1, 1, 1, 0, 3,45.00,60.00,Tuesday
7,-11.1
8,0.0
9,0.0
10,0.0
11,0.0
12,0.0
13,0.0
14,0.7023170802067756
15,-12.180176771922442
16,-0.13993054974969255
17,-11.696533133051162
18,1.1745576257563606
2,1, 1, 1, 0, 4, 0.00,15.00,Tuesday
7,-11.1
8,0.0
9,0.0
10,0.0
11,0.0
12,0.0
13,0.0
14,0.6683441042354921
15,-12.149177204357953
16,-0.17298336260159886
17,-11.681558016314228
18,1.138675978235005
2,1, 1, 1, 0, 4,15.00,30.00,Tuesday
7,-11.1
8,0.0
9,0.0
10,0.0
11,0.0
12,0.0
13,0.0
14,0.6346239033303297
15,-12.11941593961287
16,-0.20688115479327963
17,-11.675599032386345
18,1.1029592932198762
2,1, 1, 1, 0, 4,30.00,45.00,Tuesday
7,-11.1
8,0.0
9,0.0
10,0.0
11,0.0
12,0.0
13,0.0
14,0.6009924871610124
15,-12.09129790634283
16,-0.23811901891792787
17,-11.667132903670506
18,1.067352493620472
2,1, 1, 1, 0, 4,45.00,60.00,Tuesday
7,-11.1
8,0.0
9,0.0
10,0.0
11,0.0
12,0.0
13,0.0
14,0.5674292975178323
15,-12.064698050572379
16,-0.26776894808926957
17,-11.654259729516639
18,1.0318198350344592
2,1, 1, 1, 0, 5, 0.00,15.00,Tuesday
7,-10.975
8,0.0
9,0.0
10,0.0
11,0.0
12,0.0
13,0.0
14,0.5401412269269298
15,-11.942354164410851
16,-0.28762530622191209
17,-11.546390952682714
18,0.9971761727819686
2,1, 1, 1, 0, 5,15.00,30.00,Tuesday
7,-10.85
8,0.0
9,0.0
10,0.0
11,0.0
12,0.0
13,0.0
14,0.5120304423351502
15,-11.820147007059646
16,-0.3061948996232786
17,-11.43254573229774
18,0.9637512660049291
2,1, 1, 1, 0, 5,30.00,45.00,Tuesday
7,-10.725
8,0.0
9,0.0
10,0.0
11,0.0
12,0.0
13,0.0
14,0.4847698626947852
15,-11.697887682184554
16,-0.3246077822237794
17,-11.318332396161395
18,0.9313595704537457
2,1, 1, 1, 0, 5,45.00,60.00,Tuesday
7,-10.6
8,0.0
9,0.0
10,0.0
11,0.0
12,0.0
13,0.0
14,0.45815776732515869
15,-11.575643424633677
16,-0.3423174085255596
17,-11.204049085082773
18,0.8997304854218026
2,1, 1, 1, 0, 6, 0.00,15.00,Tuesday
7,-10.6
8,0.0
9,0.0
10,0.0
11,0.0
12,0.0
13,0.0
14,0.4234243332781499
15,-11.576348383746959
16,-0.37454424702900726
17,-11.201809164470376
18,0.8675233137396221
2,1, 1, 1, 0, 6,15.00,30.00,Tuesday
7,-10.6
8,0.0
9,0.0
10,0.0
11,0.0
12,0.0
13,0.0
14,0.39022722684282387
15,-11.57693414571617
16,-0.4065852579452667
17,-11.202989071638286
18,0.834107062881314
2,1, 1, 1, 0, 6,30.00,45.00,Tuesday
7,-10.6
8,0.0
9,0.0
10,0.0
11,0.0
12,0.0
13,0.0
14,0.35643218848897886
15,-11.577596558711724
16,-0.4381837098341066
17,-11.205015771036813
18,0.799718277672999
2,1, 1, 1, 0, 6,45.00,60.00,Tuesday
7,-10.6
8,0.0
9,0.0
10,0.0
11,0.0
12,0.0
13,0.0
14,0.32232323770106449
15,-11.578254668766096
16,-0.4702392473018904
17,-11.207336513457677
18,0.7647936498404878
2,1, 1, 1, 0, 7, 0.00,15.00,Tuesday
7,-10.6
8,0.0
9,0.0
10,0.0
11,0.0
12,0.0
13,0.0
14,0.29143755369480625
15,-11.55275479521596
16,-0.5006125792302214
17,-11.20088095116489
18,0.730179120713
2,1, 1, 1, 0, 7,15.00,30.00,Tuesday
7,-10.6
8,0.0
9,0.0
10,0.0
11,0.0
12,0.0
13,0.0
14,0.25942696317892546
15,-11.528604599167993
16,-0.5298650456587097
17,-11.192438372397419
18,0.6961964023092974
2,1, 1, 1, 0, 7,30.00,45.00,Tuesday
7,-10.6
8,0.0
9,0.0
10,0.0
11,0.0
12,0.0
13,0.0
14,0.22778713401213783
15,-11.50564246094698
16,-0.5595628105415358
17,-11.183834539858652
18,0.6627180537233229
2,1, 1, 1, 0, 7,45.00,60.00,Tuesday
7,-10.6
8,0.0
9,0.0
10,0.0
11,0.0
12,0.0
13,0.0
14,0.19641470279748977
15,-11.483836801070133
16,-0.5889555599674168
17,-11.17537243582251
18,0.6295666366556147
2,1, 1, 1, 0, 8, 0.00,15.00,Tuesday
7,-10.45
8,0.0
9,0.0
10,0.0
11,0.0
12,0.0
13,0.0
14,0.1629328153267997
15,-11.435999428720262
16,-0.6130603361869476
17,-11.135289987499846
18,0.5959530807558111
2,1, 1, 1, 0, 8,15.00,30.00,Tuesday
7,-10.3
8,57.69019600974546
9,1.0
10,22.819555959623899
11,1.0
12,22.819555959623899
13,57.69019600974546
14,0.2308534442990445
15,-9.763330281549186
16,-0.20552715794974575
17,-10.785250526446646
18,0.5754809204358757
2,1, 1, 1, 0, 8,30.00,45.00,Tuesday
7,-10.15
8,285.3800070249231
9,1.0
10,109.75755355442667
11,1.0
12,109.75755355442667
13,285.3800070249231
14,0.5706870505975642
15,-3.405176997044675
16,1.5430904034371907
17,-9.514378555962822
18,0.6042529767707003
2,1, 1, 1, 0, 8,45.00,60.00,Tuesday
7,-10.0
8,524.6055123031704
9,1.0
10,195.8764694434918
11,1.0
12,195.8764694434918
13,524.6055123031704
14,0.9885794429617139
15,3.087183561473953
16,3.1603740761255496
17,-8.239354008655369
18,0.6920625507009347
2,1, 1, 1, 0, 9, 0.00,15.00,Tuesday
7,-9.725
8,768.4491717444191
9,1.0
10,278.97248314719988
11,1.0
12,278.97248314719988
13,768.4491717444191
14,1.3131492373282397
15,8.269048726613452
16,4.644988629131831
17,-7.130245770241913
18,0.8312290057282725
2,1, 1, 1, 0, 9,15.00,30.00,Tuesday
7,-9.45
8,1030.6249243631592
9,1.0
10,364.91995730569456
11,1.0
12,364.91995730569456
13,1030.6249243631592
14,1.6821511813015413
15,13.348578410863598
16,6.128838357484824
17,-6.038332749069241
18,1.0084231838278615
2,1, 1, 1, 0, 9,30.00,45.00,Tuesday
7,-9.175
8,1210.4804273274606
9,1.0
10,420.35879993239237
11,1.0
12,420.35879993239237
13,1210.4804273274606
14,1.9220486580886465
15,16.107880865909004
16,7.130058814565473
17,-5.376941124923746
18,1.204641360997096
2,1, 1, 1, 0, 9,45.00,60.00,Tuesday
7,-8.9
8,1398.6777532574607
9,1.0
10,478.00138373643099
11,1.0
12,478.00138373643099
13,1398.6777532574607
14,2.2066044922489498
15,19.103382834453148
16,8.127642168485068
17,-4.68536590014395
18,1.413814680971199
2,1, 1, 1, 0,10, 0.00,15.00,Tuesday
7,-8.350000000000002
8,1592.0755180216234
9,1.0
10,536.9185644770597
11,1.0
12,536.9185644770597
13,1592.0755180216234
14,2.4304745550109758
15,20.223648005639057
16,9.158625338627417
17,-3.8701742663067195
18,1.6379619105555639
2,1, 1, 1, 0,10,15.00,30.00,Tuesday
7,-7.800000000000001
8,1792.701648704855
9,1.0
10,598.0969199229219
11,1.0
12,598.0969199229219
13,1792.701648704855
14,2.6782756168483488
15,21.478790643657903
16,10.216529916720618
17,-3.0795995073365249
18,1.8738434458469704
2,1, 1, 1, 0,10,30.00,45.00,Tuesday
7,-7.25
8,1928.119448426844
9,1.0
10,637.6133352894237
11,1.0
12,637.6133352894237
13,1928.119448426844
14,2.8585779343647439
15,21.540350561844475
16,10.96419424114481
17,-2.521422557282108
18,2.1080020309846736
2,1, 1, 1, 0,10,45.00,60.00,Tuesday
7,-6.7
8,2061.422449283195
9,1.0
10,676.6412284283772
11,1.0
12,676.6412284283772
13,2061.422449283195
14,3.0533906884810078
15,21.702018302848847
16,11.682351697292348
17,-1.9665781098513549
18,2.3328462819951456
2,1, 1, 1, 0,11, 0.00,15.00,Tuesday
7,-6.275
8,2192.1032501103888
9,1.0
10,715.0112779846514
11,1.0
12,715.0112779846514
13,2192.1032501103888
14,3.324786418373948
15,23.799294067427544
16,12.399274093121278
17,-1.2363177272771964
18,2.551804703943285
2,1, 1, 1, 0,11,15.00,30.00,Tuesday
7,-5.85
8,2319.457313777197
9,1.0
10,752.5077794605232
11,1.0
12,752.5077794605232
13,2319.457313777197
14,3.580929514909495
15,25.733890900838249
16,13.103456362671296
17,-0.5182976615965345
18,2.76957027130163
2,1, 1, 1, 0,11,30.00,45.00,Tuesday
7,-5.425
8,2285.6965649767259
9,1.0
10,742.5988714321785
11,1.0
12,742.5988714321785
13,2285.6965649767259
14,3.718151632201996
15,25.58543588368707
16,13.1579760559149
17,-0.21678659917336064
18,2.97201860879278
2,1, 1, 1, 0,11,45.00,60.00,Tuesday
7,-5.0
8,2235.2264038775226
9,1.0
10,727.8169025450712
11,1.0
12,727.8169025450712
13,2235.2264038775226
14,3.851535418320798
15,25.355709856126344
16,13.11660775331245
17,0.05291490361446449
18,3.1496436251534516
2,1, 1, 1, 0,12, 0.00,15.00,Tuesday
7,-4.575
8,2148.0872974320998
9,1.0
10,700.3759009170325
11,1.0
12,700.3759009170325
13,2148.0872974320998
14,3.937844305935738
15,24.612657140710643
16,12.893562226363315
17,0.26139476573609957
18,3.2982539243774147
2,1, 1, 1, 0,12,15.00,30.00,Tuesday
7,-4.15
8,2080.433669087304
9,1.0
10,681.6705029034473
11,1.0
12,681.6705029034473
13,2080.433669087304
14,4.042566500772465
15,24.281794662713339
16,12.773998036949252
17,0.5453005548416741
18,3.4244832108057294
2,1, 1, 1, 0,12,30.00,45.00,Tuesday
7,-3.7249999999999998
8,1821.205491197466
9,1.0
10,602.01865277251
11,1.0
12,602.01865277251
13,1821.205491197466
14,3.948493368279798
15,21.25313569955802
16,11.809137730147768
17,0.3371789813236319
18,3.513068550659007
2,1, 1, 1, 0,12,45.00,60.00,Tuesday
7,-3.3
8,1484.3573874927543
9,1.0
10,493.55004396206007
11,1.0
12,493.55004396206007
13,1484.3573874927543
14,3.7642760998091058
15,17.07404171601848
16,10.343388909422004
17,-0.1526686663489727
18,3.547196236328966
2,1, 1, 1, 0,13, 0.00,15.00,Tuesday
7,-3.0249999999999996
8,1217.3467534298216
9,1.0
10,412.335026418112
11,1.0
12,412.335026418112
13,1217.3467534298216
14,3.6428238922859519
15,14.22877001070765
16,9.194197022419587
17,-0.4757104633644076
18,3.532889530737855
2,1, 1, 1, 0,13,15.00,30.00,Tuesday
7,-2.75
8,884.698883173216
9,1.0
10,305.94037763660148
11,1.0
12,305.94037763660148
13,884.698883173216
14,3.3990147303509286
15,10.053775582138228
16,7.629467955257496
17,-1.0365502602016932
18,3.4743384389928186
2,1, 1, 1, 0,13,30.00,45.00,Tuesday
7,-2.475
8,804.3446509208166
9,1.0
10,281.0763483922329
11,1.0
12,281.0763483922329
13,804.3446509208166
14,3.3751100219275207
15,9.543070830340634
16,7.230853119669405
17,-0.9077916100108041
18,3.406835400458708
2,1, 1, 1, 0,13,45.00,60.00,Tuesday
7,-2.2
8,725.6418045118138
9,1.0
10,256.7721209415886
11,1.0
12,256.7721209415886
13,725.6418045118138
14,3.3401279399851888
15,8.9346868491464
16,6.880612273486918
17,-0.7569663672196612
18,3.352613702448905
2,1, 1, 1, 0,14, 0.00,15.00,Tuesday
7,-1.9250000000000003
8,590.7556685446293
9,1.0
10,210.73276284570657
11,1.0
12,210.73276284570657
13,590.7556685446293
14,3.236909680579012
15,7.383552111885335
16,6.170532419254187
17,-0.8508074338183178
18,3.3061467632906096
2,1, 1, 1, 0,14,15.00,30.00,Tuesday
7,-1.6500000000000002
8,521.0384688260733
9,1.0
10,189.38488290342594
11,1.0
12,189.38488290342594
13,521.0384688260733
14,3.2189745450512317
15,6.981041387855705
16,5.830308077202403
17,-0.7366204406787347
18,3.266833764852953
2,1, 1, 1, 0,14,30.00,45.00,Tuesday
7,-1.375
8,498.15229057485149
9,1.0
10,179.3940297802914
11,1.0
12,179.3940297802914
13,498.15229057485149
14,3.2186398857463227
15,7.100164557504049
16,5.6889256774205709
17,-0.5127312809150908
18,3.2363872408851637
2,1, 1, 1, 0,14,45.00,60.00,Tuesday
7,-1.1
8,474.5397565900047
9,1.0
10,169.43349014176136
11,1.0
12,169.43349014176136
13,474.5397565900047
14,3.2186620562515788
15,7.197484931667592
16,5.546996271057765
17,-0.2892768198142335
18,3.213764363517966
2,1, 1, 1, 0,15, 0.00,15.00,Tuesday
7,-1.1
8,498.70949945430098
9,1.0
10,178.15692317953907
11,1.0
12,178.15692317953907
13,498.70949945430098
14,3.2669174766058148
15,8.014523971800476
16,5.687962175332586
17,-0.17158889546965384
18,3.201013210980517
2,1, 1, 1, 0,15,15.00,30.00,Tuesday
7,-1.1
8,468.37919296528846
9,1.0
10,166.40516310952945
11,1.0
12,166.40516310952945
13,468.37919296528846
14,3.233201561950893
15,7.648125917612886
16,5.502585581646542
17,-0.26091542940622505
18,3.1914714224148388
2,1, 1, 1, 0,15,30.00,45.00,Tuesday
7,-1.1
8,393.0687015115151
9,1.0
10,140.8967369711617
11,1.0
12,140.8967369711617
13,393.0687015115151
14,3.1474472754080535
15,6.439515584763144
16,5.0662747649678299
17,-0.5349824505606193
18,3.1734460413061109
2,1, 1, 1, 0,15,45.00,60.00,Tuesday
7,-1.1
8,321.7616953401986
9,1.0
10,116.57355796743004
11,1.0
12,116.57355796743004
13,321.7616953401986
14,3.0547938840320718
15,5.228097621620804
16,4.626906177358478
17,-0.8140926227418959
18,3.1415354589641439
2,1, 1, 1, 0,16, 0.00,15.00,Tuesday
7,-1.1
8,253.93333576075279
9,1.0
10,93.14939272689483
11,1.0
12,93.14939272689483
13,253.93333576075279
14,2.975258552542565
15,4.173123237176528
16,4.192359504051126
17,-1.0293212876247254
18,3.096376382234259
2,1, 1, 1, 0,16,15.00,30.00,Tuesday
7,-1.1
8,156.7583535986634
9,1.0
10,57.94047897402063
11,1.0
12,57.94047897402063
13,156.7583535986634
14,2.8220150768382918
15,2.0427675955712178
16,3.5165607972982118
17,-1.4442189733298392
18,3.03463665782951
2,1, 1, 1, 0,16,30.00,45.00,Tuesday
7,-1.1
8,120.7720561106513
9,1.0
10,45.38251793443488
11,1.0
12,45.38251793443488
13,120.7720561106513
14,2.7637656085948847
15,1.424730869640219
16,3.217315930256291
17,-1.573685698849033
18,2.9648389149502036
2,1, 1, 1, 0,16,45.00,60.00,Tuesday
7,-1.1
8,83.83798514208277
9,1.0
10,32.02625108222755
11,1.0
12,32.02625108222755
13,83.83798514208277
14,2.675485421737578
15,0.5530581010494173
16,2.9044570868067014
17,-1.7353204210974696
18,2.893684247926346
2,1, 1, 1, 0,17, 0.00,15.00,Tuesday
7,-1.1
8,45.806462499356218
9,1.0
10,17.762198626050539
11,1.0
12,17.762198626050539
13,45.806462499356218
14,2.5601130917691359
15,-0.7098617102568158
16,2.561494358711684
17,-2.0340134373308276
18,2.818909651050948
2,1, 1, 1, 0,17,15.00,30.00,Tuesday
7,-1.1
8,0.0
9,0.0
10,0.0
11,0.0
12,0.0
13,0.0
14,2.3985032618909409
15,-2.5520103286375859
16,2.146490614387062
17,-2.3381113176052397
18,2.7295445196882754
2,1, 1, 1, 0,17,30.00,45.00,Tuesday
7,-1.1
8,0.0
9,0.0
10,0.0
11,0.0
12,0.0
13,0.0
14,2.3541830009267818
15,-2.693113415984218
16,2.0533429481354235
17,-2.425649279656284
18,2.6384195436112409
2,1, 1, 1, 0,17,45.00,60.00,Tuesday
7,-1.1
8,0.0
9,0.0
10,0.0
11,0.0
12,0.0
13,0.0
14,2.295318246640118
15,-2.8933291797922187
16,1.9971675438188755
17,-2.5275166076319239
18,2.560020886638804
2,1, 1, 1, 0,18, 0.00,15.00,Tuesday
7,-1.25
8,0.0
9,0.0
10,0.0
11,0.0
12,0.0
13,0.0
14,2.2474290923676905
15,-3.039981719455311
16,1.9310364715450988
17,-2.6805831790432537
18,2.498048345446302
2,1, 1, 1, 0,18,15.00,30.00,Tuesday
7,-1.4
8,0.0
9,0.0
10,0.0
11,0.0
12,0.0
13,0.0
14,2.204484771530931
15,-3.1922913538930626
16,1.8827350818812648
17,-2.8214406126501219
18,2.4493039073311966
2,1, 1, 1, 0,18,30.00,45.00,Tuesday
7,-1.5499999999999999
8,0.0
9,0.0
10,0.0
11,0.0
12,0.0
13,0.0
14,2.1670662986774498
15,-3.3439532431756358
16,1.834384432878437
17,-2.966505330835332
18,2.4091303877879239
2,1, 1, 1, 0,18,45.00,60.00,Tuesday
7,-1.7
8,0.0
9,0.0
10,0.0
11,0.0
12,0.0
13,0.0
14,2.1313203912851286
15,-3.4958449592836695
16,1.789786167337411
17,-3.110969359277533
18,2.37385599190224
2,1, 1, 1, 0,19, 0.00,15.00,Tuesday
7,-1.825
8,0.0
9,0.0
10,0.0
11,0.0
12,0.0
13,0.0
14,2.1232054855553548
15,-3.334169954840882
16,1.7619802795602482
17,-3.084469306129506
18,2.3449212591231238
2,1, 1, 1, 0,19,15.00,30.00,Tuesday
7,-1.9500000000000002
8,0.0
9,0.0
10,0.0
11,0.0
12,0.0
13,0.0
14,2.114992124161614
15,-3.2555132982029324
16,1.7451566883906935
17,-3.089480506962616
18,2.3237963284062048
2,1, 1, 1, 0,19,30.00,45.00,Tuesday
7,-2.075
8,0.0
9,0.0
10,0.0
11,0.0
12,0.0
13,0.0
14,2.1018667956160037
15,-3.3260208925937517
16,1.7289277434865654
17,-3.175760750123004
18,2.3088072125848284
2,1, 1, 1, 0,19,45.00,60.00,Tuesday
7,-2.2
8,0.0
9,0.0
10,0.0
11,0.0
12,0.0
13,0.0
14,2.092127593457691
15,-3.2933368355059198
16,1.7144872222222035
17,-3.1963046504626506
18,2.2969475227966886
2,1, 1, 1, 0,20, 0.00,15.00,Tuesday
7,-1.9250000000000003
8,0.0
9,0.0
10,0.0
11,0.0
12,0.0
13,0.0
14,2.0976647486674588
15,-2.9895090988119916
16,1.7376989083194872
17,-2.9216437843135738
18,2.2875001769940868
2,1, 1, 1, 0,20,15.00,30.00,Tuesday
7,-1.6500000000000002
8,0.0
9,0.0
10,0.0
11,0.0
12,0.0
13,0.0
14,2.1036467282852655
15,-2.6889525771644129
16,1.7616614136136946
17,-2.645128541830104
18,2.2804720210433699
2,1, 1, 1, 0,20,30.00,45.00,Tuesday
7,-1.375
8,0.0
9,0.0
10,0.0
11,0.0
12,0.0
13,0.0
14,2.1108731279685335
15,-2.389812396085247
16,1.7867105182588148
17,-2.368731872664057
18,2.2755958607624366
2,1, 1, 1, 0,20,45.00,60.00,Tuesday
7,-1.1
8,0.0
9,0.0
10,0.0
11,0.0
12,0.0
13,0.0
14,2.1193007648971404
15,-2.0920476674803649
16,1.8130260151222047
17,-2.092435525528572
18,2.2724469130100899
2,1, 1, 1, 0,21, 0.00,15.00,Tuesday
7,-1.25
8,0.0
9,0.0
10,0.0
11,0.0
12,0.0
13,0.0
14,2.0844419442088184
15,-2.3838246797625635
16,1.7849216827207784
17,-2.3247278077853936
18,2.2655481849617096
2,1, 1, 1, 0,21,15.00,30.00,Tuesday
7,-1.4
8,0.0
9,0.0
10,0.0
11,0.0
12,0.0
13,0.0
14,2.048123321559077
15,-2.6060220967684417
16,1.7453690751323166
17,-2.5015944064967359
18,2.2502164575569276
2,1, 1, 1, 0,21,30.00,45.00,Tuesday
7,-1.5499999999999999
8,0.0
9,0.0
10,0.0
11,0.0
12,0.0
13,0.0
14,1.9990164916890399
15,-2.964196456554988
16,1.692107404886542
17,-2.7560308004005948
18,2.2247242310379784
2,1, 1, 1, 0,21,45.00,60.00,Tuesday
7,-1.7
8,0.0
9,0.0
10,0.0
11,0.0
12,0.0
13,0.0
14,1.9446806596832025
15,-3.431913360125213
16,1.6263017009583792
17,-3.0484257216450034
18,2.1904875476402698
2,1, 1, 1, 0,22, 0.00,15.00,Tuesday
7,-1.5499999999999999
8,0.0
9,0.0
10,0.0
11,0.0
12,0.0
13,0.0
14,1.9630574893030044
15,-2.925532891431112
16,1.6250766917950728
17,-2.728241640537476
18,2.1606619779381757
2,1, 1, 1, 0,22,15.00,30.00,Tuesday
7,-1.4
8,0.0
9,0.0
10,0.0
11,0.0
12,0.0
13,0.0
14,1.9734082548726258
15,-2.5825139776953218
16,1.6491655685156275
17,-2.481114721537608
18,2.1431418873215275
2,1, 1, 1, 0,22,30.00,45.00,Tuesday
7,-1.25
8,0.0
9,0.0
10,0.0
11,0.0
12,0.0
13,0.0
14,1.9811289450281382
15,-2.356669640543234
16,1.667895923857941
17,-2.2997837422027489
18,2.1364417450098607
2,1, 1, 1, 0,22,45.00,60.00,Tuesday
7,-1.1
8,0.0
9,0.0
10,0.0
11,0.0
12,0.0
13,0.0
14,1.9925287063565367
15,-2.063805878485093
16,1.6938958345118068
17,-2.0665333203973548
18,2.1358081375060959
2,1, 1, 1, 0,23, 0.00,15.00,Tuesday
7,-1.25
8,0.0
9,0.0
10,0.0
11,0.0
12,0.0
13,0.0
14,1.9586187657815122
15,-2.367474211024442
16,1.6596170175349699
17,-2.383186103541675
18,2.132168638407056
2,1, 1, 1, 0,23,15.00,30.00,Tuesday
7,-1.4
8,0.0
9,0.0
10,0.0
11,0.0
12,0.0
13,0.0
14,1.9252771694814699
15,-2.672009153934256
16,1.6063183831511197
17,-2.7006814065991877
18,2.120084577676878
2,1, 1, 1, 0,23,30.00,45.00,Tuesday
7,-1.5499999999999999
8,0.0
9,0.0
10,0.0
11,0.0
12,0.0
13,0.0
14,1.8887925901734133
15,-2.977057951445173
16,1.5515544787374438
17,-3.017958625389042
18,2.099575573779914
2,1, 1, 1, 0,23,45.00,60.00,Tuesday
7,-1.7
8,0.0
9,0.0
10,0.0
11,0.0
12,0.0
13,0.0
14,1.8478930896675215
15,-3.282467269268623
16,1.493593891104183
17,-3.335235245915271
18,2.072725334037648
2,1, 1, 1, 0,24, 0.00,15.00,Tuesday
7,-1.7
8,0.0
9,0.0
10,0.0
11,0.0
12,0.0
13,0.0
14,1.8255083884960298
15,-3.336070786655358
16,1.4604613378367049
17,-3.392560792958932
18,2.04432540099431
2,1, 1, 1, 0,24,15.00,30.00,Tuesday
7,-1.7
8,0.0
9,0.0
10,0.0
11,0.0
12,0.0
13,0.0
14,1.7999997336117624
15,-3.3905296744214477
16,1.433150513972123
17,-3.453568287686835
18,2.017373345098687
2,1, 1, 1, 0,24,30.00,45.00,Tuesday
7,-1.7
8,0.0
9,0.0
10,0.0
11,0.0
12,0.0
13,0.0
14,1.775039426940376
15,-3.4448540696736518
16,1.4049932697087684
17,-3.51480743533682
18,1.9922735681871855
2,1, 1, 1, 0,24,45.00,60.00,Tuesday
7,-1.7
8,0.0
9,0.0
10,0.0
11,0.0
12,0.0
13,0.0
14,1.7505924143252592
15,-3.4991781127536947
16,1.377366243697793
17,-3.5759517454973777
18,1.9683953392368732
End of Data
 Number of Records Written=        1152
