Program Version,EnergyPlus, Version 9.5.0-de239b2e5f, YMD=2023.02.16 18:15
1,5,Environment Title[],Latitude[deg],Longitude[deg],Time Zone[],Elevation[m]
2,8,Day of Simulation[],Month[],Day of Month[],DST Indicator[1=yes 0=no],Hour[],StartMinute[],EndMinute[],DayType
3,5,Cumulative Day of Simulation[],Month[],Day of Month[],DST Indicator[1=yes 0=no],DayType  ! When Daily Report Variables Requested
4,2,Cumulative Days of Simulation[],Month[]  ! When Monthly Report Variables Requested
5,1,Cumulative Days of Simulation[] ! When Run Period Report Variables Requested
6,1,Calendar Year of Simulation[] ! When Annual Report Variables Requested
7,1,Environment,Site Outdoor Air Drybulb Temperature [C] !TimeStep
8,1,ZONE ONE,Zone Windows Total Transmitted Solar Radiation Rate [W] !TimeStep
9,1,ZN001:WALL001,Surface Outside Face Sunlit Fraction [] !TimeStep
10,1,ZN001:WALL001,Surface Outside Face Incident Solar Radiation Rate per Area [W/m2] !TimeStep
11,1,ZN001:WALL001:WIN001,Surface Outside Face Sunlit Fraction [] !TimeStep
12,1,ZN001:WALL001:WIN001,Surface Outside Face Incident Solar Radiation Rate per Area [W/m2] !TimeStep
13,1,ZN001:WALL001:WIN001,Surface Window Transmitted Solar Radiation Rate [W] !TimeStep
14,1,ZN001:WALL001,Surface Inside Face Temperature [C] !TimeStep
15,1,ZN001:WALL001,Surface Outside Face Temperature [C] !TimeStep
16,1,ZN001:WALL001:WIN001,Surface Inside Face Temperature [C] !TimeStep
17,1,ZN001:WALL001:WIN001,Surface Outside Face Temperature [C] !TimeStep
18,1,ZONE ONE,Zone Mean Air Temperature [C] !TimeStep
End of Data Dictionary
1,RUN PERIOD 1,  41.98, -87.92,  -6.00, 201.00
2,1, 1, 1, 0, 1, 0.00,15.00,Tuesday
7,-4.324999999999999
8,0.0
9,0.0
10,0.0
11,0.0
12,0.0
13,0.0
14,0.41038117595225095
15,-5.9966280331961399
16,-0.05952557214658327
17,-5.937194414825626
18,0.7345127973073758
2,1, 1, 1, 0, 1,15.00,30.00,Tuesday
7,-6.949999999999999
8,0.0
9,0.0
10,0.0
11,0.0
12,0.0
13,0.0
14,0.24377217623260068
15,-8.464583071898959
16,-0.40480959220383286
17,-8.234064587660214
18,0.664739760675001
2,1, 1, 1, 0, 1,30.00,45.00,Tuesday
7,-9.575
8,0.0
9,0.0
10,0.0
11,0.0
12,0.0
13,0.0
14,0.06046435450747269
15,-10.940889545846398
16,-0.750759069898379
17,-10.538129006759619
18,0.5654618983897838
2,1, 1, 1, 0, 1,45.00,60.00,Tuesday
7,-12.2
8,0.0
9,0.0
10,0.0
11,0.0
12,0.0
13,0.0
14,-0.1364568811285791
15,-13.42372800047896
16,-1.1085394080313336
17,-12.861222214898249
18,0.44438290391200088
2,1, 1, 1, 0, 2, 0.00,15.00,Tuesday
7,-12.075
8,0.0
9,0.0
10,0.0
11,0.0
12,0.0
13,0.0
14,-0.17955585676812778
15,-13.22534013031878
16,-1.1991445637967218
17,-12.717985097213444
18,0.33313811793831868
2,1, 1, 1, 0, 2,15.00,30.00,Tuesday
7,-11.95
8,0.0
9,0.0
10,0.0
11,0.0
12,0.0
13,0.0
14,-0.2382165470377665
15,-13.047825864219828
16,-1.237573142842507
17,-12.534139559127653
18,0.24848974230882696
2,1, 1, 1, 0, 2,30.00,45.00,Tuesday
7,-11.825
8,0.0
9,0.0
10,0.0
11,0.0
12,0.0
13,0.0
14,-0.2823160956454132
15,-12.869186976800745
16,-1.2718967149913852
17,-12.359505498235706
18,0.18774694434397735
2,1, 1, 1, 0, 2,45.00,60.00,Tuesday
7,-11.7
8,0.0
9,0.0
10,0.0
11,0.0
12,0.0
13,0.0
14,-0.31633799966275197
15,-12.690600894968759
16,-1.294401248133454
17,-12.183956279162488
18,0.1421919591423604
2,1, 1, 1, 0, 3, 0.00,15.00,Tuesday
7,-11.549999999999999
8,0.0
9,0.0
10,0.0
11,0.0
12,0.0
13,0.0
14,-0.3493543420248537
15,-12.566694823268684
16,-1.3130194679893635
17,-12.059281965095409
18,0.10380842032039237
2,1, 1, 1, 0, 3,15.00,30.00,Tuesday
7,-11.399999999999999
8,0.0
9,0.0
10,0.0
11,0.0
12,0.0
13,0.0
14,-0.3780824746500183
15,-12.44424140555952
16,-1.3310672885431814
17,-11.92856332846452
18,0.06830489406815586
2,1, 1, 1, 0, 3,30.00,45.00,Tuesday
7,-11.25
8,0.0
9,0.0
10,0.0
11,0.0
12,0.0
13,0.0
14,-0.4068039219278841
15,-12.323456965004825
16,-1.3468533518339428
17,-11.797984216539817
18,0.03408530434252238
2,1, 1, 1, 0, 3,45.00,60.00,Tuesday
7,-11.1
8,0.0
9,0.0
10,0.0
11,0.0
12,0.0
13,0.0
14,-0.4349221311759157
15,-12.204331264469229
16,-1.362252884972122
17,-11.66818984415579
18,0.0006989666264547164
2,1, 1, 1, 0, 4, 0.00,15.00,Tuesday
7,-11.1
8,0.0
9,0.0
10,0.0
11,0.0
12,0.0
13,0.0
14,-0.4661442214289597
15,-12.172633565798284
16,-1.3922033894862125
17,-11.653691649767439
18,-0.032298455154106977
2,1, 1, 1, 0, 4,15.00,30.00,Tuesday
7,-11.1
8,0.0
9,0.0
10,0.0
11,0.0
12,0.0
13,0.0
14,-0.4970074495702385
15,-12.142156459559024
16,-1.4221261890761526
17,-11.648254383047743
18,-0.0651159304063267
2,1, 1, 1, 0, 4,30.00,45.00,Tuesday
7,-11.1
8,0.0
9,0.0
10,0.0
11,0.0
12,0.0
13,0.0
14,-0.5278033514671178
15,-12.113361076027673
16,-1.4503245015787343
17,-11.640507184158878
18,-0.09784135835827689
2,1, 1, 1, 0, 4,45.00,60.00,Tuesday
7,-11.1
8,0.0
9,0.0
10,0.0
11,0.0
12,0.0
13,0.0
14,-0.5585680104221077
15,-12.086117473049459
16,-1.478703888216728
17,-11.632581714886442
18,-0.13048729869368226
2,1, 1, 1, 0, 5, 0.00,15.00,Tuesday
7,-10.975
8,0.0
9,0.0
10,0.0
11,0.0
12,0.0
13,0.0
14,-0.5839633588137815
15,-11.963700030640466
16,-1.4927280142542828
17,-11.522210889465555
18,-0.16240192339324009
2,1, 1, 1, 0, 5,15.00,30.00,Tuesday
7,-10.85
8,0.0
9,0.0
10,0.0
11,0.0
12,0.0
13,0.0
14,-0.6092104946419201
15,-11.84139418073128
16,-1.5071672201444245
17,-11.409333332319875
18,-0.19318765063784808
2,1, 1, 1, 0, 5,30.00,45.00,Tuesday
7,-10.725
8,0.0
9,0.0
10,0.0
11,0.0
12,0.0
13,0.0
14,-0.633730700139247
15,-11.71907588846233
16,-1.5211486729592708
17,-11.296246805710894
18,-0.22291908741684916
2,1, 1, 1, 0, 5,45.00,60.00,Tuesday
7,-10.6
8,0.0
9,0.0
10,0.0
11,0.0
12,0.0
13,0.0
14,-0.6575904300261962
15,-11.59676784961326
16,-1.534462409467892
17,-11.183097573488795
18,-0.2518299231913632
2,1, 1, 1, 0, 6, 0.00,15.00,Tuesday
7,-10.6
8,0.0
9,0.0
10,0.0
11,0.0
12,0.0
13,0.0
14,-0.6886387312036929
15,-11.597433252664981
16,-1.5632339158413516
17,-11.180760619752789
18,-0.2811540589583542
2,1, 1, 1, 0, 6,15.00,30.00,Tuesday
7,-10.6
8,0.0
9,0.0
10,0.0
11,0.0
12,0.0
13,0.0
14,-0.7192088125008626
15,-11.598002895515373
16,-1.5920419450693544
17,-11.181954192180115
18,-0.31160385314834
2,1, 1, 1, 0, 6,30.00,45.00,Tuesday
7,-10.6
8,0.0
9,0.0
10,0.0
11,0.0
12,0.0
13,0.0
14,-0.7502186185119066
15,-11.598607877983577
16,-1.6207301784047559
17,-11.18405873239675
18,-0.3430555129748472
2,1, 1, 1, 0, 6,45.00,60.00,Tuesday
7,-10.6
8,0.0
9,0.0
10,0.0
11,0.0
12,0.0
13,0.0
14,-0.7815664595082947
15,-11.599215002901273
16,-1.6497836292958255
17,-11.186455919799755
18,-0.3751090895226806
2,1, 1, 1, 0, 7, 0.00,15.00,Tuesday
7,-10.6
8,0.0
9,0.0
10,0.0
11,0.0
12,0.0
13,0.0
14,-0.8106748004310164
15,-11.573114838225042
16,-1.6770574618928436
17,-11.180460261071517
18,-0.4070312576797093
2,1, 1, 1, 0, 7,15.00,30.00,Tuesday
7,-10.6
8,0.0
9,0.0
10,0.0
11,0.0
12,0.0
13,0.0
14,-0.8399262318311419
15,-11.548363971775436
16,-1.7036814906761038
17,-11.17258073718267
18,-0.4384291781200496
2,1, 1, 1, 0, 7,30.00,45.00,Tuesday
7,-10.6
8,0.0
9,0.0
10,0.0
11,0.0
12,0.0
13,0.0
14,-0.8689390196460555
15,-11.524866863560753
16,-1.7303943436338046
17,-11.164486558139629
18,-0.469322334777279
2,1, 1, 1, 0, 7,45.00,60.00,Tuesday
7,-10.6
8,0.0
9,0.0
10,0.0
11,0.0
12,0.0
13,0.0
14,-0.8976831801330288
15,-11.502547406442961
16,-1.7568934425011094
17,-11.156526614522079
18,-0.49984940912799027
2,1, 1, 1, 0, 8, 0.00,15.00,Tuesday
7,-10.45
8,0.0
9,0.0
10,0.0
11,0.0
12,0.0
13,0.0
14,-0.9275665829968416
15,-11.455132078411106
16,-1.778322686931233
17,-11.116808075776817
18,-0.5306799845415332
2,1, 1, 1, 0, 8,15.00,30.00,Tuesday
7,-10.3
8,43.92919895502562
9,1.0
10,22.819555959623899
11,1.0
12,22.819555959623899
13,43.92919895502562
14,-0.8605602170452876
15,-9.782654615636929
16,-1.3820345250391029
17,-10.776577503604301
18,-0.549283278897888
2,1, 1, 1, 0, 8,30.00,45.00,Tuesday
7,-10.15
8,217.30754917639187
9,1.0
10,109.75755355442667
11,1.0
12,109.75755355442667
13,217.30754917639187
14,-0.5278302745128635
15,-3.427590381245144
16,0.32206748853008096
17,-9.538430879471094
18,-0.5223317545552272
2,1, 1, 1, 0, 8,45.00,60.00,Tuesday
7,-10.0
8,399.4699535945363
9,1.0
10,195.8764694434918
11,1.0
12,195.8764694434918
13,399.4699535945363
14,-0.10191456281761102
15,3.0865489782598836
16,1.9107238145011252
17,-8.288443613492064
18,-0.44083624973505716
2,1, 1, 1, 0, 9, 0.00,15.00,Tuesday
7,-9.725
8,585.1489314874541
9,1.0
10,278.97248314719988
11,1.0
12,278.97248314719988
13,585.1489314874541
14,0.18241901431186986
15,8.24689052187813
16,3.3736969068182818
17,-7.191720803838848
18,-0.31023902028342689
2,1, 1, 1, 0, 9,15.00,30.00,Tuesday
7,-9.45
8,784.787199245388
9,1.0
10,364.91995730569456
11,1.0
12,364.91995730569456
13,784.787199245388
14,0.5368003721464143
15,13.331410794512478
16,4.839451528058305
17,-6.106808496163239
18,-0.1428684680663918
2,1, 1, 1, 0, 9,30.00,45.00,Tuesday
7,-9.175
8,921.7412871041541
9,1.0
10,420.35879993239237
11,1.0
12,420.35879993239237
13,921.7412871041541
14,0.762970646525189
15,16.090754196466564
16,5.830524150283566
17,-5.442797801511233
18,0.043031339841559868
2,1, 1, 1, 0, 9,45.00,60.00,Tuesday
7,-8.9
8,1065.0474005418728
9,1.0
10,478.00138373643099
11,1.0
12,478.00138373643099
13,1065.0474005418728
14,1.0317288414727497
15,19.08662235741193
16,6.820061019038576
17,-4.749349753502202
18,0.24287028173702539
2,1, 1, 1, 0,10, 0.00,15.00,Tuesday
7,-8.350000000000002
8,1212.3134782022194
9,1.0
10,536.9185644770597
11,1.0
12,536.9185644770597
13,1212.3134782022194
14,1.239068477675231
15,20.208142799749049
16,7.843320934724943
17,-3.9297164118447656
18,0.4556821763461377
2,1, 1, 1, 0,10,15.00,30.00,Tuesday
7,-7.800000000000001
8,1365.083720287943
9,1.0
10,598.0969199229219
11,1.0
12,598.0969199229219
13,1365.083720287943
14,1.4682864792823325
15,21.464148982413414
16,8.89141695964986
17,-3.135459122990312
18,0.6777501978594986
2,1, 1, 1, 0,10,30.00,45.00,Tuesday
7,-7.25
8,1468.1999493442264
9,1.0
10,637.6133352894237
11,1.0
12,637.6133352894237
13,1468.1999493442264
14,1.631130609549379
15,21.526529208295388
16,9.629814327297709
17,-2.572099487234027
18,0.8966465566285309
2,1, 1, 1, 0,10,45.00,60.00,Tuesday
7,-6.7
8,1569.705828175432
9,1.0
10,676.6412284283772
11,1.0
12,676.6412284283772
13,1569.705828175432
14,1.8072925808891572
15,21.688850948813536
16,10.338775861017666
17,-2.0129996507702119
18,1.1057625566552732
2,1, 1, 1, 0,11, 0.00,15.00,Tuesday
7,-6.275
8,1669.2149873773784
9,1.0
10,715.0112779846514
11,1.0
12,715.0112779846514
13,1669.2149873773784
14,2.0616626063233465
15,23.785952725120049
16,11.047869913841965
17,-1.2824953463849056
18,1.3087520096532488
2,1, 1, 1, 0,11,15.00,30.00,Tuesday
7,-5.85
8,1766.190944948854
9,1.0
10,752.5077794605232
11,1.0
12,752.5077794605232
13,1766.190944948854
14,2.2974440534018938
15,25.72045184633204
16,11.744463470828692
17,-0.5639179793649305
18,1.509952885421725
2,1, 1, 1, 0,11,30.00,45.00,Tuesday
7,-5.425
8,1740.4832380327117
9,1.0
10,742.5988714321785
11,1.0
12,742.5988714321785
13,1740.4832380327117
14,2.4210141771840067
15,25.571997956768685
16,11.786816964186187
17,-0.26398794138935957
18,1.6960309757832067
2,1, 1, 1, 0,11,45.00,60.00,Tuesday
7,-5.0
8,1702.0518597121073
9,1.0
10,727.8169025450712
11,1.0
12,727.8169025450712
13,1702.0518597121073
14,2.540863969116451
15,25.34209384750761
16,11.735599070894637
17,0.0038045838659286348
18,1.858331633268413
2,1, 1, 1, 0,12, 0.00,15.00,Tuesday
7,-4.575
8,1635.6982778457269
9,1.0
10,700.3759009170325
11,1.0
12,700.3759009170325
13,1635.6982778457269
14,2.6158656425274464
15,24.598917397461429
16,11.506211856309392
17,0.211327884092384
18,1.992955514257738
2,1, 1, 1, 0,12,15.00,30.00,Tuesday
7,-4.15
8,1584.1822507707826
9,1.0
10,681.6705029034473
11,1.0
12,681.6705029034473
13,1584.1822507707826
14,2.7072584788336995
15,24.26789990481611
16,11.376563435317224
17,0.49105743404504667
18,2.1058322479329316
2,1, 1, 1, 0,12,30.00,45.00,Tuesday
7,-3.7249999999999998
8,1386.7884648429923
9,1.0
10,602.01865277251
11,1.0
12,602.01865277251
13,1386.7884648429923
14,2.6142487165438288
15,21.239224762370765
16,10.40415872174816
17,0.26877971399244418
18,2.182846896074242
2,1, 1, 1, 0,12,45.00,60.00,Tuesday
7,-3.3
8,1130.2896420139664
9,1.0
10,493.55004396206007
11,1.0
12,493.55004396206007
13,1130.2896420139664
14,2.43638282279281
15,17.060027692146606
16,8.94682734527521
17,-0.20890156881125677
18,2.209269198618636
2,1, 1, 1, 0,13, 0.00,15.00,Tuesday
7,-3.0249999999999996
8,926.9697700398867
9,1.0
10,412.335026418112
11,1.0
12,412.335026418112
13,926.9697700398867
14,2.321934976658073
15,14.214615922595938
16,7.800565622424074
17,-0.5365617938669516
18,2.189879965244315
2,1, 1, 1, 0,13,15.00,30.00,Tuesday
7,-2.75
8,673.6692877186736
9,1.0
10,305.94037763660148
11,1.0
12,305.94037763660148
13,673.6692877186736
14,2.0921479826197935
15,10.040083980662784
16,6.249146625108722
17,-1.0975815471349507
18,2.129905492315092
2,1, 1, 1, 0,13,30.00,45.00,Tuesday
7,-2.475
8,612.4821658219637
9,1.0
10,281.0763483922329
11,1.0
12,281.0763483922329
13,612.4821658219637
14,2.0669730227087355
15,9.527564382708622
16,5.860529477107946
17,-0.9720849426547602
18,2.0632516718414717
2,1, 1, 1, 0,13,45.00,60.00,Tuesday
7,-2.2
8,552.552520277972
9,1.0
10,256.7721209415886
11,1.0
12,256.7721209415886
13,552.552520277972
14,2.035264283000452
15,8.918015861035949
16,5.5145289571576658
17,-0.8248703970064071
18,2.010250793806219
2,1, 1, 1, 0,14, 0.00,15.00,Tuesday
7,-1.9250000000000003
8,449.8411357962977
9,1.0
10,210.73276284570657
11,1.0
12,210.73276284570657
13,449.8411357962977
14,1.9434047156124684
15,7.36964925748342
16,4.81821199384251
17,-0.9189274348962044
18,1.9657266555984568
2,1, 1, 1, 0,14,15.00,30.00,Tuesday
7,-1.6500000000000002
8,396.7537665575463
9,1.0
10,189.38488290342594
11,1.0
12,189.38488290342594
13,396.7537665575463
14,1.9231497786743149
15,6.963841319397116
16,4.487569562172496
17,-0.8083084665327078
18,1.928869247220036
2,1, 1, 1, 0,14,30.00,45.00,Tuesday
7,-1.375
8,379.3266897359249
9,1.0
10,179.3940297802914
11,1.0
12,179.3940297802914
13,379.3266897359249
14,1.9273707537751346
15,7.083524708691144
16,4.357718864616572
17,-0.5851964713324378
18,1.9008345456606107
2,1, 1, 1, 0,14,45.00,60.00,Tuesday
7,-1.1
8,361.3465167603399
9,1.0
10,169.43349014176136
11,1.0
12,169.43349014176136
13,361.3465167603399
14,1.9315680590630469
15,7.180218765582977
16,4.227754072844334
17,-0.3627589850008235
18,1.8804958124897902
2,1, 1, 1, 0,15, 0.00,15.00,Tuesday
7,-1.1
8,379.75098608822659
9,1.0
10,178.15692317953907
11,1.0
12,178.15692317953907
13,379.75098608822659
14,1.975144868886031
15,7.994135730136657
16,4.368445968328615
17,-0.24837386859087474
18,1.869917444843435
2,1, 1, 1, 0,15,15.00,30.00,Tuesday
7,-1.1
8,356.65544888641286
9,1.0
10,166.40516310952945
11,1.0
12,166.40516310952945
13,356.65544888641286
14,1.945197382122058
15,7.629824135622295
16,4.187110930652125
17,-0.33755933359401527
18,1.8625976842053079
2,1, 1, 1, 0,15,30.00,45.00,Tuesday
7,-1.1
8,299.30897077907687
9,1.0
10,140.8967369711617
11,1.0
12,140.8967369711617
13,299.30897077907687
14,1.866084397659454
15,6.421279249338886
16,3.7590518833881108
17,-0.6107844995989922
18,1.8473350459940088
2,1, 1, 1, 0,15,45.00,60.00,Tuesday
7,-1.1
8,245.01101588106585
9,1.0
10,116.57355796743004
11,1.0
12,116.57355796743004
13,245.01101588106585
14,1.7787840048119357
15,5.207623473580335
16,3.3287577656273585
17,-0.8893769668945879
18,1.8187981627978296
2,1, 1, 1, 0,16, 0.00,15.00,Tuesday
7,-1.1
8,193.3619366811613
9,1.0
10,93.14939272689483
11,1.0
12,93.14939272689483
13,193.3619366811613
14,1.698755470600458
15,4.1502203837514879
16,2.9053693397193
17,-1.1061900916584478
18,1.7782245192355313
2,1, 1, 1, 0,16,15.00,30.00,Tuesday
7,-1.1
8,119.36636342751545
9,1.0
10,57.94047897402063
11,1.0
12,57.94047897402063
13,119.36636342751545
14,1.5519057169691062
15,2.0183919406804509
16,2.2479519247908685
17,-1.519188530360566
18,1.722698433447351
2,1, 1, 1, 0,16,30.00,45.00,Tuesday
7,-1.1
8,91.9639739168048
9,1.0
10,45.38251793443488
11,1.0
12,45.38251793443488
13,91.9639739168048
14,1.4984894992722953
15,1.3988886657955202
16,1.9620293665452664
17,-1.647381869024457
18,1.6598223945002575
2,1, 1, 1, 0,16,45.00,60.00,Tuesday
7,-1.1
8,63.83988587375654
9,1.0
10,32.02625108222755
11,1.0
12,32.02625108222755
13,63.83988587375654
14,1.4154958769138482
15,0.5245369056062382
16,1.66377670340637
17,-1.8095398436857977
18,1.5955023234410944
2,1, 1, 1, 0,17, 0.00,15.00,Tuesday
7,-1.1
8,34.880124245395318
9,1.0
10,17.762198626050539
11,1.0
12,17.762198626050539
13,34.880124245395318
14,1.3047654458273126
15,-0.7419100986939051
16,1.320116288293093
17,-2.1069625657188455
18,1.5278087437506514
2,1, 1, 1, 0,17,15.00,30.00,Tuesday
7,-1.1
8,0.0
9,0.0
10,0.0
11,0.0
12,0.0
13,0.0
14,1.1484013873524637
15,-2.5854179562333838
16,0.9220723521560217
17,-2.40003050319433
18,1.4465949006438353
2,1, 1, 1, 0,17,30.00,45.00,Tuesday
7,-1.1
8,0.0
9,0.0
10,0.0
11,0.0
12,0.0
13,0.0
14,1.109716560661272
15,-2.7276868029703875
16,0.8333990593889666
17,-2.491092236169038
18,1.3609920550881907
2,1, 1, 1, 0,17,45.00,60.00,Tuesday
7,-1.1
8,0.0
9,0.0
10,0.0
11,0.0
12,0.0
13,0.0
14,1.0539285841620199
15,-2.9307297104880045
16,0.7805351514961103
17,-2.594793246190079
18,1.2851186483362032
2,1, 1, 1, 0,18, 0.00,15.00,Tuesday
7,-1.25
8,0.0
9,0.0
10,0.0
11,0.0
12,0.0
13,0.0
14,1.009169128398926
15,-3.076986219400074
16,0.7163004543609759
17,-2.7463555468485767
18,1.224164052363827
2,1, 1, 1, 0,18,15.00,30.00,Tuesday
7,-1.4
8,0.0
9,0.0
10,0.0
11,0.0
12,0.0
13,0.0
14,0.9695887323238404
15,-3.2293402518318565
16,0.668625336703542
17,-2.885634011710124
18,1.176323381842474
2,1, 1, 1, 0,18,30.00,45.00,Tuesday
7,-1.5499999999999999
8,0.0
9,0.0
10,0.0
11,0.0
12,0.0
13,0.0
14,0.9334209335920177
15,-3.381035866312965
16,0.6211897354199323
17,-3.0292789211947026
18,1.1373898191026629
2,1, 1, 1, 0,18,45.00,60.00,Tuesday
7,-1.7
8,0.0
9,0.0
10,0.0
11,0.0
12,0.0
13,0.0
14,0.900105978930186
15,-3.532792331115085
16,0.5768028468303328
17,-3.172335351783204
18,1.1037573912054735
2,1, 1, 1, 0,19, 0.00,15.00,Tuesday
7,-1.825
8,0.0
9,0.0
10,0.0
11,0.0
12,0.0
13,0.0
14,0.8950560339197481
15,-3.366936888648217
16,0.5528731682292687
17,-3.1427125374640356
18,1.076788154755184
2,1, 1, 1, 0,19,15.00,30.00,Tuesday
7,-1.9500000000000002
8,0.0
9,0.0
10,0.0
11,0.0
12,0.0
13,0.0
14,0.890922075033522
15,-3.2845794912595567
16,0.5403665691104607
17,-3.143707251742171
18,1.0579495247069919
2,1, 1, 1, 0,19,30.00,45.00,Tuesday
7,-2.075
8,0.0
9,0.0
10,0.0
11,0.0
12,0.0
13,0.0
14,0.8813048514429873
15,-3.354133317968844
16,0.5250377516665594
17,-3.227335868119553
18,1.0455605014542376
2,1, 1, 1, 0,19,45.00,60.00,Tuesday
7,-2.2
8,0.0
9,0.0
10,0.0
11,0.0
12,0.0
13,0.0
14,0.8740326881120704
15,-3.3181455313883028
16,0.5147955697816542
17,-3.2443840854349448
18,1.0364940765959399
2,1, 1, 1, 0,20, 0.00,15.00,Tuesday
7,-1.9250000000000003
8,0.0
9,0.0
10,0.0
11,0.0
12,0.0
13,0.0
14,0.8827922927182417
15,-3.013426891330565
16,0.5444889969392079
17,-2.9707313777123547
18,1.029916348017882
2,1, 1, 1, 0,20,15.00,30.00,Tuesday
7,-1.6500000000000002
8,0.0
9,0.0
10,0.0
11,0.0
12,0.0
13,0.0
14,0.8921337128749531
15,-2.7121152048205787
16,0.5755801867319406
17,-2.6954762286144389
18,1.0258001173490437
2,1, 1, 1, 0,20,30.00,45.00,Tuesday
7,-1.375
8,0.0
9,0.0
10,0.0
11,0.0
12,0.0
13,0.0
14,0.9026665534126657
15,-2.412250889073067
16,0.607898059886395
17,-2.4202628096170999
18,1.0238808870381556
2,1, 1, 1, 0,20,45.00,60.00,Tuesday
7,-1.1
8,0.0
9,0.0
10,0.0
11,0.0
12,0.0
13,0.0
14,0.9151602697754575
15,-2.1137929242876765
16,0.6414929495670094
17,-2.1450874881917345
18,1.0238071081091487
2,1, 1, 1, 0,21, 0.00,15.00,Tuesday
7,-1.25
8,0.0
9,0.0
10,0.0
11,0.0
12,0.0
13,0.0
14,0.8830980929767303
15,-2.4091297250880188
16,0.612155689998076
17,-2.3800138023224237
18,1.0203454473577283
2,1, 1, 1, 0,21,15.00,30.00,Tuesday
7,-1.4
8,0.0
9,0.0
10,0.0
11,0.0
12,0.0
13,0.0
14,0.8486520108988835
15,-2.633169984762009
16,0.5727169181829481
17,-2.5576775031731246
18,1.0087287878247247
2,1, 1, 1, 0,21,30.00,45.00,Tuesday
7,-1.5499999999999999
8,0.0
9,0.0
10,0.0
11,0.0
12,0.0
13,0.0
14,0.8013853182466526
15,-2.995840101865861
16,0.5177980621462552
17,-2.8151839604565795
18,0.9869403885860111
2,1, 1, 1, 0,21,45.00,60.00,Tuesday
7,-1.7
8,0.0
9,0.0
10,0.0
11,0.0
12,0.0
13,0.0
14,0.7491178727299742
15,-3.468602458597502
16,0.4500894000293556
17,-3.1100153574619755
18,0.9561496566814647
2,1, 1, 1, 0,22, 0.00,15.00,Tuesday
7,-1.5499999999999999
8,0.0
9,0.0
10,0.0
11,0.0
12,0.0
13,0.0
14,0.7724408141211377
15,-2.9561374963852757
16,0.457438140122008
17,-2.7876670192011945
18,0.9294308195940789
2,1, 1, 1, 0,22,15.00,30.00,Tuesday
7,-1.4
8,0.0
9,0.0
10,0.0
11,0.0
12,0.0
13,0.0
14,0.7872054160606464
15,-2.609059523802269
16,0.48945823175807848
17,-2.5374671150490828
18,0.9147278853925525
2,1, 1, 1, 0,22,30.00,45.00,Tuesday
7,-1.25
8,0.0
9,0.0
10,0.0
11,0.0
12,0.0
13,0.0
14,0.7979839612463023
15,-2.381363303457352
16,0.5146097546362398
17,-2.3551420548029684
18,0.9106588103482495
2,1, 1, 1, 0,22,45.00,60.00,Tuesday
7,-1.1
8,0.0
9,0.0
10,0.0
11,0.0
12,0.0
13,0.0
14,0.8132612047536822
15,-2.085096661983321
16,0.5477171176222555
17,-2.1187073964991898
18,0.9126927928943525
2,1, 1, 1, 0,23, 0.00,15.00,Tuesday
7,-1.25
8,0.0
9,0.0
10,0.0
11,0.0
12,0.0
13,0.0
14,0.7821616653850535
15,-2.388985409176103
16,0.511245235032959
17,-2.432036967698764
18,0.9121842578271098
2,1, 1, 1, 0,23,15.00,30.00,Tuesday
7,-1.4
8,0.0
9,0.0
10,0.0
11,0.0
12,0.0
13,0.0
14,0.7506736327054276
15,-2.693540768460036
16,0.45606358751808787
17,-2.7467504439418919
18,0.90363047862486
2,1, 1, 1, 0,23,30.00,45.00,Tuesday
7,-1.5499999999999999
8,0.0
9,0.0
10,0.0
11,0.0
12,0.0
13,0.0
14,0.7165140605463354
15,-2.998546127504306
16,0.3993018683830769
17,-3.061287169754337
18,0.8867254680791817
2,1, 1, 1, 0,23,45.00,60.00,Tuesday
7,-1.7
8,0.0
9,0.0
10,0.0
11,0.0
12,0.0
13,0.0
14,0.679185060271148
15,-3.3039214269222314
16,0.3396638042443101
17,-3.375850521170605
18,0.86342822210523
2,1, 1, 1, 0,24, 0.00,15.00,Tuesday
7,-1.7
8,0.0
9,0.0
10,0.0
11,0.0
12,0.0
13,0.0
14,0.6587728505100167
15,-3.357453170929579
16,0.3090476944690863
17,-3.4328215518183926
18,0.8382832458226347
2,1, 1, 1, 0,24,15.00,30.00,Tuesday
7,-1.7
8,0.0
9,0.0
10,0.0
11,0.0
12,0.0
13,0.0
14,0.6363640962047122
15,-3.4118137368763166
16,0.2836521448144822
17,-3.493272908002268
18,0.8142907858816053
2,1, 1, 1, 0,24,30.00,45.00,Tuesday
7,-1.7
8,0.0
9,0.0
10,0.0
11,0.0
12,0.0
13,0.0
14,0.6142921417027634
15,-3.4660946415658766
16,0.25770714598024826
17,-3.5539469084533268
18,0.7920105003681901
2,1, 1, 1, 0,24,45.00,60.00,Tuesday
7,-1.7
8,0.0
9,0.0
10,0.0
11,0.0
12,0.0
13,0.0
14,0.5926623379942778
15,-3.5203699127340726
16,0.23218504873858593
17,-3.614533704202586
18,0.7709273822546929
End of Data
 Number of Records Written=        1152
