Program Version,EnergyPlus, Version 9.5.0-de239b2e5f, YMD=2023.02.16 18:15
1,5,Environment Title[],Latitude[deg],Longitude[deg],Time Zone[],Elevation[m]
2,8,Day of Simulation[],Month[],Day of Month[],DST Indicator[1=yes 0=no],Hour[],StartMinute[],EndMinute[],DayType
3,5,Cumulative Day of Simulation[],Month[],Day of Month[],DST Indicator[1=yes 0=no],DayType  ! When Daily Report Variables Requested
4,2,Cumulative Days of Simulation[],Month[]  ! When Monthly Report Variables Requested
5,1,Cumulative Days of Simulation[] ! When Run Period Report Variables Requested
6,1,Calendar Year of Simulation[] ! When Annual Report Variables Requested
7,1,Environment,Site Outdoor Air Drybulb Temperature [C] !TimeStep
8,1,ZONE ONE,Zone Windows Total Transmitted Solar Radiation Rate [W] !TimeStep
9,1,ZN001:WALL001,Surface Outside Face Sunlit Fraction [] !TimeStep
10,1,ZN001:WALL001,Surface Outside Face Incident Solar Radiation Rate per Area [W/m2] !TimeStep
11,1,ZN001:WALL001:WIN001,Surface Outside Face Sunlit Fraction [] !TimeStep
12,1,ZN001:WALL001:WIN001,Surface Outside Face Incident Solar Radiation Rate per Area [W/m2] !TimeStep
13,1,ZN001:WALL001:WIN001,Surface Window Transmitted Solar Radiation Rate [W] !TimeStep
14,1,ZN001:WALL001,Surface Inside Face Temperature [C] !TimeStep
15,1,ZN001:WALL001,Surface Outside Face Temperature [C] !TimeStep
16,1,ZN001:WALL001:WIN001,Surface Inside Face Temperature [C] !TimeStep
17,1,ZN001:WALL001:WIN001,Surface Outside Face Temperature [C] !TimeStep
18,1,ZONE ONE,Zone Mean Air Temperature [C] !TimeStep
End of Data Dictionary
1,RUN PERIOD 1,  41.98, -87.92,  -6.00, 201.00
2,1, 1, 1, 0, 1, 0.00,15.00,Tuesday
7,-4.324999999999999
8,0.0
9,0.0
10,0.0
11,0.0
12,0.0
13,0.0
14,1.6413746505892033
15,-5.974059339590358
16,1.2520809004520289
17,-5.960633133376632
18,2.003470216482922
2,1, 1, 1, 0, 1,15.00,30.00,Tuesday
7,-6.949999999999999
8,0.0
9,0.0
10,0.0
11,0.0
12,0.0
13,0.0
14,1.4746454676610126
15,-8.441940226635298
16,0.9542337305725823
17,-8.292079277865014
18,1.9316213759674959
2,1, 1, 1, 0, 1,30.00,45.00,Tuesday
7,-9.575
8,0.0
9,0.0
10,0.0
11,0.0
12,0.0
13,0.0
14,1.2914802058217128
15,-10.917942426096385
16,0.6545054835749511
17,-10.630894523437974
18,1.8312989355177903
2,1, 1, 1, 0, 1,45.00,60.00,Tuesday
7,-12.2
8,0.0
9,0.0
10,0.0
11,0.0
12,0.0
13,0.0
14,1.0949031980818918
15,-13.400489241450743
16,0.340940806454455
17,-12.978512371332045
18,1.7101121619583204
2,1, 1, 1, 0, 2, 0.00,15.00,Tuesday
7,-12.075
8,0.0
9,0.0
10,0.0
11,0.0
12,0.0
13,0.0
14,1.049675390949808
15,-13.201878349861003
16,0.24473643063993223
17,-12.838045569511906
18,1.5988588110921438
2,1, 1, 1, 0, 2,15.00,30.00,Tuesday
7,-11.95
8,0.0
9,0.0
10,0.0
11,0.0
12,0.0
13,0.0
14,0.98918576845633
15,-13.024405803214462
16,0.20037128680280603
17,-12.651393320824582
18,1.5137303875718087
2,1, 1, 1, 0, 2,30.00,45.00,Tuesday
7,-11.825
8,0.0
9,0.0
10,0.0
11,0.0
12,0.0
13,0.0
14,0.9430629679237538
15,-12.845833554842006
16,0.16125629750155213
17,-12.483298640597127
18,1.4518612337355679
2,1, 1, 1, 0, 2,45.00,60.00,Tuesday
7,-11.7
8,0.0
9,0.0
10,0.0
11,0.0
12,0.0
13,0.0
14,0.9067371128794933
15,-12.66731970597725
16,0.13097367458112786
17,-12.294648008712386
18,1.404574296214799
2,1, 1, 1, 0, 3, 0.00,15.00,Tuesday
7,-11.549999999999999
8,0.0
9,0.0
10,0.0
11,0.0
12,0.0
13,0.0
14,0.8713445081051235
15,-12.542838527831665
16,0.10632606235793674
17,-12.169283376790418
18,1.3640188920660188
2,1, 1, 1, 0, 3,15.00,30.00,Tuesday
7,-11.399999999999999
8,0.0
9,0.0
10,0.0
11,0.0
12,0.0
13,0.0
14,0.8391146605180117
15,-12.419786324754055
16,0.08230261368521497
17,-12.038050962169905
18,1.325959198953411
2,1, 1, 1, 0, 3,30.00,45.00,Tuesday
7,-11.25
8,0.0
9,0.0
10,0.0
11,0.0
12,0.0
13,0.0
14,0.8087669514729288
15,-12.29833817225839
16,0.06012329926028315
17,-11.907072516176584
18,1.2890892824624896
2,1, 1, 1, 0, 3,45.00,60.00,Tuesday
7,-11.1
8,0.0
9,0.0
10,0.0
11,0.0
12,0.0
13,0.0
14,0.7768660388506297
15,-12.17859506683729
16,0.038968015291800387
17,-11.776819681089706
18,1.2529367960780527
2,1, 1, 1, 0, 4, 0.00,15.00,Tuesday
7,-11.1
8,0.0
9,0.0
10,0.0
11,0.0
12,0.0
13,0.0
14,0.7429538470180532
15,-12.147639382352466
16,0.005968825293280133
17,-11.760278058185464
18,1.2171016075887127
2,1, 1, 1, 0, 4,15.00,30.00,Tuesday
7,-11.1
8,0.0
9,0.0
10,0.0
11,0.0
12,0.0
13,0.0
14,0.7093273725195092
15,-12.11791963461223
16,-0.02589521613396073
17,-11.748732592664908
18,1.1814164112706674
2,1, 1, 1, 0, 4,30.00,45.00,Tuesday
7,-11.1
8,0.0
9,0.0
10,0.0
11,0.0
12,0.0
13,0.0
14,0.6757430480175951
15,-12.089841136551688
16,-0.05760465439652762
17,-11.737848581448759
18,1.1458456601338363
2,1, 1, 1, 0, 4,45.00,60.00,Tuesday
7,-11.1
8,0.0
9,0.0
10,0.0
11,0.0
12,0.0
13,0.0
14,0.6422096476078325
15,-12.063279136309543
16,-0.08925285814336803
17,-11.727405745101635
18,1.1103905228787606
2,1, 1, 1, 0, 5, 0.00,15.00,Tuesday
7,-10.975
8,0.0
9,0.0
10,0.0
11,0.0
12,0.0
13,0.0
14,0.6149735972695963
15,-11.940935306110845
16,-0.11038608692217622
17,-11.618550404844484
18,1.0758283496812578
2,1, 1, 1, 0, 5,15.00,30.00,Tuesday
7,-10.85
8,0.0
9,0.0
10,0.0
11,0.0
12,0.0
13,0.0
14,0.5869179973203772
15,-11.81872767665931
16,-0.13007054061620239
17,-11.503708603631822
18,1.04246685544924
2,1, 1, 1, 0, 5,30.00,45.00,Tuesday
7,-10.725
8,0.0
9,0.0
10,0.0
11,0.0
12,0.0
13,0.0
14,0.5597032933943592
15,-11.696468424574793
16,-0.14959511278118499
17,-11.388513409971552
18,1.01011881740681
2,1, 1, 1, 0, 5,45.00,60.00,Tuesday
7,-10.6
8,0.0
9,0.0
10,0.0
11,0.0
12,0.0
13,0.0
14,0.5331272203872437
15,-11.574224422234672
16,-0.1684241191816227
17,-11.273257800360966
18,0.9785196339512832
2,1, 1, 1, 0, 6, 0.00,15.00,Tuesday
7,-10.6
8,0.0
9,0.0
10,0.0
11,0.0
12,0.0
13,0.0
14,0.49844346598708219
15,-11.57492774670009
16,-0.20119871267894497
17,-11.270897755152987
18,0.9463423822044879
2,1, 1, 1, 0, 6,15.00,30.00,Tuesday
7,-10.6
8,0.0
9,0.0
10,0.0
11,0.0
12,0.0
13,0.0
14,0.4662967241855237
15,-11.575512810782465
16,-0.23339577578201443
17,-11.271880195231802
18,0.913085851565219
2,1, 1, 1, 0, 6,30.00,45.00,Tuesday
7,-10.6
8,0.0
9,0.0
10,0.0
11,0.0
12,0.0
13,0.0
14,0.4315468149764086
15,-11.576207306228787
16,-0.26475935221651528
17,-11.27366439749261
18,0.8788176856508244
2,1, 1, 1, 0, 6,45.00,60.00,Tuesday
7,-10.6
8,0.0
9,0.0
10,0.0
11,0.0
12,0.0
13,0.0
14,0.39761968275363565
15,-11.576824542186455
16,-0.29740693194571579
17,-11.275824648356207
18,0.8439308481544485
2,1, 1, 1, 0, 7, 0.00,15.00,Tuesday
7,-10.6
8,0.0
9,0.0
10,0.0
11,0.0
12,0.0
13,0.0
14,0.3667660569710314
15,-11.551366258452186
16,-0.327834879684076
17,-11.268130209675235
18,0.8093272756615572
2,1, 1, 1, 0, 7,15.00,30.00,Tuesday
7,-10.6
8,0.0
9,0.0
10,0.0
11,0.0
12,0.0
13,0.0
14,0.33479031723412897
15,-11.52725049809577
16,-0.3572570307053411
17,-11.258283808237366
18,0.7753644756710866
2,1, 1, 1, 0, 7,30.00,45.00,Tuesday
7,-10.6
8,0.0
9,0.0
10,0.0
11,0.0
12,0.0
13,0.0
14,0.30318824275815917
15,-11.504321351881487
16,-0.3871449314469828
17,-11.24826525041658
18,0.7419219265178221
2,1, 1, 1, 0, 7,45.00,60.00,Tuesday
7,-10.6
8,0.0
9,0.0
10,0.0
11,0.0
12,0.0
13,0.0
14,0.2718600426483844
15,-11.482546947737891
16,-0.4167115920909623
17,-11.238426205409383
18,0.7088168173711196
2,1, 1, 1, 0, 8, 0.00,15.00,Tuesday
7,-10.45
8,0.0
9,0.0
10,0.0
11,0.0
12,0.0
13,0.0
14,0.2384353183188671
15,-11.434676320336369
16,-0.44104887001492446
17,-11.198400380426734
18,0.6752527120832217
2,1, 1, 1, 0, 8,15.00,30.00,Tuesday
7,-10.3
8,57.69019600974546
9,1.0
10,22.819555959623899
11,1.0
12,22.819555959623899
13,57.69019600974546
14,0.30632332152690147
15,-9.762003547663966
16,-0.0321233148306419
17,-10.850846923543032
18,0.6547855240694129
2,1, 1, 1, 0, 8,30.00,45.00,Tuesday
7,-10.15
8,285.3800070249231
9,1.0
10,109.75755355442667
11,1.0
12,109.75755355442667
13,285.3800070249231
14,0.6456485137958964
15,-3.4036870793137847
16,1.7112619702887742
17,-9.59003278023431
18,0.6835983400433691
2,1, 1, 1, 0, 8,45.00,60.00,Tuesday
7,-10.0
8,524.6055123031704
9,1.0
10,195.8764694434918
11,1.0
12,195.8764694434918
13,524.6055123031704
14,1.0611798932293542
15,3.0872569472519357
16,3.3191948412384137
17,-8.31956855354423
18,0.7716140740152767
2,1, 1, 1, 0, 9, 0.00,15.00,Tuesday
7,-9.725
8,768.4491717444191
9,1.0
10,278.97248314719988
11,1.0
12,278.97248314719988
13,768.4491717444191
14,1.3879306565276358
15,8.270632587642995
16,4.798283411308148
17,-7.213984496458579
18,0.91111461924343
2,1, 1, 1, 0, 9,15.00,30.00,Tuesday
7,-9.45
8,1030.6249243631592
9,1.0
10,364.91995730569456
11,1.0
12,364.91995730569456
13,1030.6249243631592
14,1.7570756036181515
15,13.34970187592391
16,6.277426894244456
17,-6.1257283121418599
18,1.0886232167620982
2,1, 1, 1, 0, 9,30.00,45.00,Tuesday
7,-9.175
8,1210.4804273274606
9,1.0
10,420.35879993239237
11,1.0
12,420.35879993239237
13,1210.4804273274606
14,1.9973072138672985
15,16.108994480101655
16,7.276971152166084
17,-5.466679374015712
18,1.2851315733937808
2,1, 1, 1, 0, 9,45.00,60.00,Tuesday
7,-8.9
8,1398.6777532574607
9,1.0
10,478.00138373643099
11,1.0
12,478.00138373643099
13,1398.6777532574607
14,2.2818824046269405
15,19.104463797570209
16,8.272662870279305
17,-4.777431169966803
18,1.4947345999553148
2,1, 1, 1, 0,10, 0.00,15.00,Tuesday
7,-8.350000000000002
8,1592.0755180216234
9,1.0
10,536.9185644770597
11,1.0
12,536.9185644770597
13,1592.0755180216234
14,2.5059062387307358
15,20.22463285809716
16,9.301458308231986
17,-3.9586363308729917
18,1.7191723196130025
2,1, 1, 1, 0,10,15.00,30.00,Tuesday
7,-7.800000000000001
8,1792.701648704855
9,1.0
10,598.0969199229219
11,1.0
12,598.0969199229219
13,1792.701648704855
14,2.7537894814435255
15,21.479706434249569
16,10.357327671818439
17,-3.1654232574953768
18,1.9551633145899908
2,1, 1, 1, 0,10,30.00,45.00,Tuesday
7,-7.25
8,1928.119448426844
9,1.0
10,637.6133352894237
11,1.0
12,637.6133352894237
13,1928.119448426844
14,2.9340642937521306
15,21.541198319014478
16,11.103940711465612
17,-2.603978183017716
18,2.1893295898940599
2,1, 1, 1, 0,10,45.00,60.00,Tuesday
7,-6.7
8,2061.422449283195
9,1.0
10,676.6412284283772
11,1.0
12,676.6412284283772
13,2061.422449283195
14,3.1288461169991708
15,21.702812896823614
16,11.820797174547807
17,-2.046161431931182
18,2.414153366374906
2,1, 1, 1, 0,11, 0.00,15.00,Tuesday
7,-6.275
8,2192.1032501103888
9,1.0
10,715.0112779846514
11,1.0
12,715.0112779846514
13,2192.1032501103888
14,3.4001967611656567
15,23.800095268665399
16,12.534786051608365
17,-1.316817299468596
18,2.6330451139327675
2,1, 1, 1, 0,11,15.00,30.00,Tuesday
7,-5.85
8,2319.457313777197
9,1.0
10,752.5077794605232
11,1.0
12,752.5077794605232
13,2319.457313777197
14,3.6562575632909217
15,25.734682704470918
16,13.236187049600688
17,-0.5996833488800348
18,2.850679219366992
2,1, 1, 1, 0,11,30.00,45.00,Tuesday
7,-5.425
8,2285.6965649767259
9,1.0
10,742.5988714321785
11,1.0
12,742.5988714321785
13,2285.6965649767259
14,3.7933409672592024
15,25.586215296221277
16,13.289395316568232
17,-0.29658913962708768
18,3.052974743212945
2,1, 1, 1, 0,11,45.00,60.00,Tuesday
7,-5.0
8,2235.2264038775226
9,1.0
10,727.8169025450712
11,1.0
12,727.8169025450712
13,2235.2264038775226
14,3.926607886487966
15,25.356489125173505
16,13.246606959549468
17,-0.024970387847702115
18,3.230470490774933
2,1, 1, 1, 0,12, 0.00,15.00,Tuesday
7,-4.575
8,2148.0872974320998
9,1.0
10,700.3759009170325
11,1.0
12,700.3759009170325
13,2148.0872974320998
14,4.012760401087736
15,24.613434745247309
16,13.022095183960403
17,0.1863259945321829
18,3.3790004309869254
2,1, 1, 1, 0,12,15.00,30.00,Tuesday
7,-4.15
8,2080.433669087304
9,1.0
10,681.6705029034473
11,1.0
12,681.6705029034473
13,2080.433669087304
14,4.117521737002273
15,24.282575050025668
16,12.900636756958079
17,0.47268692589898367
18,3.505140674161
2,1, 1, 1, 0,12,30.00,45.00,Tuesday
7,-3.7249999999999998
8,1821.205491197466
9,1.0
10,602.01865277251
11,1.0
12,602.01865277251
13,1821.205491197466
14,4.023044970847853
15,21.253906661296737
16,11.936583758475138
17,0.259282997761602
18,3.5936906699081465
2,1, 1, 1, 0,12,45.00,60.00,Tuesday
7,-3.3
8,1484.3573874927543
9,1.0
10,493.55004396206007
11,1.0
12,493.55004396206007
13,1484.3573874927543
14,3.8386090322208186
15,17.074798976284968
16,10.469918614171548
17,-0.21239128714046275
18,3.6277089630953656
2,1, 1, 1, 0,13, 0.00,15.00,Tuesday
7,-3.0249999999999996
8,1217.3467534298216
9,1.0
10,412.335026418112
11,1.0
12,412.335026418112
13,1217.3467534298216
14,3.717241805925171
15,14.229518934767109
16,9.319939393632695
17,-0.5295591707484846
18,3.6130192548304866
2,1, 1, 1, 0,13,15.00,30.00,Tuesday
7,-2.75
8,884.698883173216
9,1.0
10,305.94037763660148
11,1.0
12,305.94037763660148
13,884.698883173216
14,3.472918924128979
15,10.054416387741404
16,7.755459936963007
17,-1.0831584555518248
18,3.553992413586189
2,1, 1, 1, 0,13,30.00,45.00,Tuesday
7,-2.475
8,804.3446509208166
9,1.0
10,281.0763483922329
11,1.0
12,281.0763483922329
13,804.3446509208166
14,3.449356509931629
15,9.54400954772819
16,7.3538550377976439
17,-0.9517272991479331
18,3.486074809670318
2,1, 1, 1, 0,13,45.00,60.00,Tuesday
7,-2.2
8,725.6418045118138
9,1.0
10,256.7721209415886
11,1.0
12,256.7721209415886
13,725.6418045118138
14,3.4140682474078516
15,8.935648854048285
16,7.001019267884885
17,-0.7982544005899399
18,3.431557760389276
2,1, 1, 1, 0,14, 0.00,15.00,Tuesday
7,-1.9250000000000003
8,590.7556685446293
9,1.0
10,210.73276284570657
11,1.0
12,210.73276284570657
13,590.7556685446293
14,3.311243542115529
15,7.385067568028599
16,6.289850820303286
17,-0.8884806117459334
18,3.384823918524537
2,1, 1, 1, 0,14,15.00,30.00,Tuesday
7,-1.6500000000000002
8,521.0384688260733
9,1.0
10,189.38488290342594
11,1.0
12,189.38488290342594
13,521.0384688260733
14,3.2922063703565218
15,6.981952110188528
16,5.946590115749984
17,-0.7727012587052968
18,3.3452576751473477
2,1, 1, 1, 0,14,30.00,45.00,Tuesday
7,-1.375
8,498.15229057485149
9,1.0
10,179.3940297802914
11,1.0
12,179.3940297802914
13,498.15229057485149
14,3.292065048677096
15,7.101155735312563
16,5.802388234476382
17,-0.5477219274985714
18,3.3145907115463526
2,1, 1, 1, 0,14,45.00,60.00,Tuesday
7,-1.1
8,474.5397565900047
9,1.0
10,169.43349014176136
11,1.0
12,169.43349014176136
13,474.5397565900047
14,3.2917461537256278
15,7.198461481636636
16,5.657760503183283
17,-0.323090370004536
18,3.2917813333643597
2,1, 1, 1, 0,15, 0.00,15.00,Tuesday
7,-1.1
8,498.70949945430098
9,1.0
10,178.15692317953907
11,1.0
12,178.15692317953907
13,498.70949945430098
14,3.3408458274735457
15,8.017875837975842
16,5.797730297042108
17,-0.2068739433789233
18,3.278863212054222
2,1, 1, 1, 0,15,15.00,30.00,Tuesday
7,-1.1
8,468.37919296528846
9,1.0
10,166.40516310952945
11,1.0
12,166.40516310952945
13,468.37919296528846
14,3.306184742847405
15,7.6490014803652939
16,5.612876824983175
17,-0.2963077119833315
18,3.269127298171488
2,1, 1, 1, 0,15,30.00,45.00,Tuesday
7,-1.1
8,393.0687015115151
9,1.0
10,140.8967369711617
11,1.0
12,140.8967369711617
13,393.0687015115151
14,3.2201194048458285
15,6.440436164435239
16,5.177062204939318
17,-0.5698017980531063
18,3.250897700328828
2,1, 1, 1, 0,15,45.00,60.00,Tuesday
7,-1.1
8,321.7616953401986
9,1.0
10,116.57355796743004
11,1.0
12,116.57355796743004
13,321.7616953401986
14,3.128322863156878
15,5.229581023127694
16,4.7384078613438309
17,-0.8483193277802457
18,3.2187206774193
2,1, 1, 1, 0,16, 0.00,15.00,Tuesday
7,-1.1
8,253.93333576075279
9,1.0
10,93.14939272689483
11,1.0
12,93.14939272689483
13,253.93333576075279
14,3.0485021310810187
15,4.174391423659483
16,4.304113201995392
17,-1.0633344460692343
18,3.1733092848743085
2,1, 1, 1, 0,16,15.00,30.00,Tuesday
7,-1.1
8,156.7583535986634
9,1.0
10,57.94047897402063
11,1.0
12,57.94047897402063
13,156.7583535986634
14,2.8954458230300519
15,2.0441996702325668
16,3.6298562236802356
17,-1.4779268014822265
18,3.111295018455057
2,1, 1, 1, 0,16,30.00,45.00,Tuesday
7,-1.1
8,120.7720561106513
9,1.0
10,45.38251793443488
11,1.0
12,45.38251793443488
13,120.7720561106513
14,2.8370421131370668
15,1.42622782954566
16,3.331439711054827
17,-1.6059424002785932
18,3.041221674393311
2,1, 1, 1, 0,16,45.00,60.00,Tuesday
7,-1.1
8,83.83798514208277
9,1.0
10,32.02625108222755
11,1.0
12,32.02625108222755
13,83.83798514208277
14,2.7486839669443148
15,0.5547210872457649
16,3.0187648092960446
17,-1.7677744578405737
18,2.9696645798486624
2,1, 1, 1, 0,17, 0.00,15.00,Tuesday
7,-1.1
8,45.806462499356218
9,1.0
10,17.762198626050539
11,1.0
12,17.762198626050539
13,45.806462499356218
14,2.633088081330455
15,-0.7079936524781776
16,2.6687482729259388
17,-2.068411965028986
18,2.8945797649587479
2,1, 1, 1, 0,17,15.00,30.00,Tuesday
7,-1.1
8,0.0
9,0.0
10,0.0
11,0.0
12,0.0
13,0.0
14,2.471543865791092
15,-2.5500524779916038
16,2.258129975554766
17,-2.368619236239965
18,2.8050210151594308
2,1, 1, 1, 0,17,30.00,45.00,Tuesday
7,-1.1
8,0.0
9,0.0
10,0.0
11,0.0
12,0.0
13,0.0
14,2.427074140469059
15,-2.6910864710293804
16,2.1654542262893416
17,-2.4578974125702759
18,2.7138825511181174
2,1, 1, 1, 0,17,45.00,60.00,Tuesday
7,-1.1
8,0.0
9,0.0
10,0.0
11,0.0
12,0.0
13,0.0
14,2.368160085145768
15,-2.8911307791612157
16,2.109529712756853
17,-2.5618035268263386
18,2.635552564782149
2,1, 1, 1, 0,18, 0.00,15.00,Tuesday
7,-1.25
8,0.0
9,0.0
10,0.0
11,0.0
12,0.0
13,0.0
14,2.320242344613457
15,-3.037800418093335
16,2.044008015307554
17,-2.7155061175792527
18,2.573655230618885
2,1, 1, 1, 0,18,15.00,30.00,Tuesday
7,-1.4
8,0.0
9,0.0
10,0.0
11,0.0
12,0.0
13,0.0
14,2.277287629252849
15,-3.190106351952388
16,1.9968929037819408
17,-2.85744073706951
18,2.524967381481975
2,1, 1, 1, 0,18,30.00,45.00,Tuesday
7,-1.5499999999999999
8,0.0
9,0.0
10,0.0
11,0.0
12,0.0
13,0.0
14,2.239851352311723
15,-3.341767345801441
16,1.949494301449306
17,-3.00340258189766
18,2.4848292097365438
2,1, 1, 1, 0,18,45.00,60.00,Tuesday
7,-1.7
8,0.0
9,0.0
10,0.0
11,0.0
12,0.0
13,0.0
14,2.2040882792175049
15,-3.4936576110525898
16,1.9058293709173882
17,-3.1488127559420038
18,2.4495738995001479
2,1, 1, 1, 0,19, 0.00,15.00,Tuesday
7,-1.825
8,0.0
9,0.0
10,0.0
11,0.0
12,0.0
13,0.0
14,2.1958911812873875
15,-3.33222918408989
16,1.8775963652498149
17,-3.1188550776038825
18,2.4206355675209005
2,1, 1, 1, 0,19,15.00,30.00,Tuesday
7,-1.9500000000000002
8,0.0
9,0.0
10,0.0
11,0.0
12,0.0
13,0.0
14,2.187585396177941
15,-3.2537892277855144
16,1.8608688247354622
17,-3.1217022455942358
18,2.399488441633033
2,1, 1, 1, 0,19,30.00,45.00,Tuesday
7,-2.075
8,0.0
9,0.0
10,0.0
11,0.0
12,0.0
13,0.0
14,2.1743926972426226
15,-3.324352589010687
16,1.8455186117893732
17,-3.2078330789009898
18,2.3844717698795336
2,1, 1, 1, 0,19,45.00,60.00,Tuesday
7,-2.2
8,0.0
9,0.0
10,0.0
11,0.0
12,0.0
13,0.0
14,2.164580287386095
15,-3.291862801995292
16,1.8313111950037638
17,-3.2263713499879715
18,2.372577812023816
2,1, 1, 1, 0,20, 0.00,15.00,Tuesday
7,-1.9250000000000003
8,0.0
9,0.0
10,0.0
11,0.0
12,0.0
13,0.0
14,2.170016827776757
15,-2.988083452288726
16,1.8519180300050949
17,-2.9486027348544896
18,2.36306446902755
2,1, 1, 1, 0,20,15.00,30.00,Tuesday
7,-1.6500000000000002
8,0.0
9,0.0
10,0.0
11,0.0
12,0.0
13,0.0
14,2.175856487349319
15,-2.68757174034128
16,1.8734504496461569
17,-2.6698706750204339
18,2.3559299815350687
2,1, 1, 1, 0,20,30.00,45.00,Tuesday
7,-1.375
8,0.0
9,0.0
10,0.0
11,0.0
12,0.0
13,0.0
14,2.1829240824693367
15,-2.388473279046591
16,1.896038278160404
17,-2.3913496457788598
18,2.350912439848371
2,1, 1, 1, 0,20,45.00,60.00,Tuesday
7,-1.1
8,0.0
9,0.0
10,0.0
11,0.0
12,0.0
13,0.0
14,2.1911775761402398
15,-2.0907485152708387
16,1.9198689708852613
17,-2.113019081142056
18,2.347596683170518
2,1, 1, 1, 0,21, 0.00,15.00,Tuesday
7,-1.25
8,0.0
9,0.0
10,0.0
11,0.0
12,0.0
13,0.0
14,2.1562542473298018
15,-2.3823129865069805
16,1.8934636694687015
17,-2.3493572022511559
18,2.3405401236847358
2,1, 1, 1, 0,21,15.00,30.00,Tuesday
7,-1.4
8,0.0
9,0.0
10,0.0
11,0.0
12,0.0
13,0.0
14,2.1199203576068088
15,-2.604397893501933
16,1.8549419987328975
17,-2.5283019427261026
18,2.3250783906169976
2,1, 1, 1, 0,21,30.00,45.00,Tuesday
7,-1.5499999999999999
8,0.0
9,0.0
10,0.0
11,0.0
12,0.0
13,0.0
14,2.070818685897653
15,-2.9622989403600856
16,1.8031675761843645
17,-2.787247069731734
18,2.2994931512398608
2,1, 1, 1, 0,21,45.00,60.00,Tuesday
7,-1.7
8,0.0
9,0.0
10,0.0
11,0.0
12,0.0
13,0.0
14,2.016492380759668
15,-3.4297063710682864
16,1.7390622469882829
17,-3.0847699149566099
18,2.2652023396874938
2,1, 1, 1, 0,22, 0.00,15.00,Tuesday
7,-1.5499999999999999
8,0.0
9,0.0
10,0.0
11,0.0
12,0.0
13,0.0
14,2.0347214027808979
15,-2.923690761051846
16,1.7352124178177633
17,-2.7577125713911529
18,2.235320192329616
2,1, 1, 1, 0,22,15.00,30.00,Tuesday
7,-1.4
8,0.0
9,0.0
10,0.0
11,0.0
12,0.0
13,0.0
14,2.0448817913589938
15,-2.580918645885755
16,1.7574239404387413
17,-2.5064691444758298
18,2.217719422494289
2,1, 1, 1, 0,22,30.00,45.00,Tuesday
7,-1.25
8,0.0
9,0.0
10,0.0
11,0.0
12,0.0
13,0.0
14,2.0524274693434805
15,-2.355183982055515
16,1.7746391221205045
17,-2.322985093317584
18,2.2109132832915034
2,1, 1, 1, 0,22,45.00,60.00,Tuesday
7,-1.1
8,0.0
9,0.0
10,0.0
11,0.0
12,0.0
13,0.0
14,2.063648773285919
15,-2.062521123571325
16,1.7987155636587887
17,-2.0862712233014237
18,2.210148940051098
2,1, 1, 1, 0,23, 0.00,15.00,Tuesday
7,-1.25
8,0.0
9,0.0
10,0.0
11,0.0
12,0.0
13,0.0
14,2.029691702101184
15,-2.366175633200955
16,1.7671665560665702
17,-2.405152306626519
18,2.2063866832836469
2,1, 1, 1, 0,23,15.00,30.00,Tuesday
7,-1.4
8,0.0
9,0.0
10,0.0
11,0.0
12,0.0
13,0.0
14,1.9963551189954985
15,-2.6707071609984505
16,1.7162679966454562
17,-2.7242970390917664
18,2.194214616668262
2,1, 1, 1, 0,23,30.00,45.00,Tuesday
7,-1.5499999999999999
8,0.0
9,0.0
10,0.0
11,0.0
12,0.0
13,0.0
14,1.9598708432220285
15,-2.9757551160462
16,1.663945414206296
17,-3.043212089175597
18,2.1736610505926046
2,1, 1, 1, 0,23,45.00,60.00,Tuesday
7,-1.7
8,0.0
9,0.0
10,0.0
11,0.0
12,0.0
13,0.0
14,1.9189855639233207
15,-3.281162869618298
16,1.6084154389839683
17,-3.3621010365109216
18,2.1468046445676349
2,1, 1, 1, 0,24, 0.00,15.00,Tuesday
7,-1.7
8,0.0
9,0.0
10,0.0
11,0.0
12,0.0
13,0.0
14,1.8965592429174545
15,-3.3347703297249295
16,1.5756598732908174
17,-3.4193492541480738
18,2.1184074635415954
2,1, 1, 1, 0,24,15.00,30.00,Tuesday
7,-1.7
8,0.0
9,0.0
10,0.0
11,0.0
12,0.0
13,0.0
14,1.871012590326034
15,-3.3892294088973546
16,1.5486532401909586
17,-3.4805531665224409
18,2.091448857980684
2,1, 1, 1, 0,24,30.00,45.00,Tuesday
7,-1.7
8,0.0
9,0.0
10,0.0
11,0.0
12,0.0
13,0.0
14,1.846013789662843
15,-3.4435545158482014
16,1.5208005134416567
17,-3.541977600482028
18,2.0663293970768348
2,1, 1, 1, 0,24,45.00,60.00,Tuesday
7,-1.7
8,0.0
9,0.0
10,0.0
11,0.0
12,0.0
13,0.0
14,1.8215256310785216
15,-3.497879399401882
16,1.4934679984538093
17,-3.603311995905642
18,2.0424214574684949
End of Data
 Number of Records Written=        1152
